  ABINIT 
  
  Give name for formatted input file: 
run.abi
  Give name for formatted output file:
run.abo
  Give root name for generic input files:
indata/in
  Give root name for generic output files:
outdata/out
  Give root name for generic temporary files:
tmpdata/tmp
 
--- !WARNING
message: |
    Finds that output file run.abo
     already exists.
src_file: isfile.F90
src_line: 120
...
 
 new name assigned:run.abo
 
 
--- !WARNING
message: |
    Finds that output file run.abo
     already exists.
src_file: isfile.F90
src_line: 120
...
 
 new name assigned:run.aboA
 
 
--- !WARNING
message: |
    The starting date is more than 2 years after the initial release
    of this version of ABINIT, namely Sep 2014.
    Note that the use beyond 3 years after the release will not be supported.
    Action : please, switch to a more recent version of ABINIT.
 
src_file: herald.F90
src_line: 154
...
 

.Version 7.9.3 of ABINIT 
.(MPI version, prepared for a x86_64_linux_intel14.0 computer) 

.Copyright (C) 1998-2014 ABINIT group . 
 ABINIT comes with ABSOLUTELY NO WARRANTY.
 It is free software, and you are welcome to redistribute it
 under certain conditions (GNU General Public License,
 see ~abinit/COPYING or http://www.gnu.org/copyleft/gpl.txt).

 ABINIT is a project of the Universite Catholique de Louvain,
 Corning Inc. and other collaborators, see ~abinit/doc/developers/contributors.txt .
 Please read ~abinit/doc/users/acknowledgments.html for suggested
 acknowledgments of the ABINIT effort.
 For more information, see http://www.abinit.org .

.Starting date : Tue 15 Nov 2016.
- ( at 15h29 )
  
 
--- !WARNING
message: |
    The starting date is more than 2 years after the initial release
    of this version of ABINIT, namely Sep 2014.
    Note that the use beyond 3 years after the release will not be supported.
    Action : please, switch to a more recent version of ABINIT.
 
src_file: herald.F90
src_line: 154
...
 
 
 ++++++++++++++++++++++++++++++++++++++++++++++++++++++++++++++++++++++++++++++
 
 === Build Information === 
  Version       : 7.9.3
  Build target  : x86_64_linux_intel14.0
  Build date    : 20140915
 
 === Compiler Suite === 
  C compiler       : intel14.0
  C++ compiler     : intel14.0
  Fortran compiler : intel14.0
  CFLAGS           :  -g -O2 -vec-report0
  CXXFLAGS         :  -g -O2 -vec-report0
  FCFLAGS          : -O2 -g -extend-source -vec-report0 -noaltparam -nofpscomp -axAVX -xSSE4.2
  FC_LDFLAGS       :    -static-intel -static-libgcc
 
 === Optimizations === 
  Debug level        : basic
  Optimization level : standard
  Architecture       : intel_xeon
 
 === Multicore === 
  Parallel build : yes
  Parallel I/O   : yes
  openMP support : no
  GPU support    : no
 
 === Connectors / Fallbacks === 
  Connectors on : yes
  Fallbacks on  : yes
  DFT flavor    : none
  FFT flavor    : fftw3
  LINALG flavor : mkl+scalapack
  MATH flavor   : none
  TIMER flavor  : abinit
  TRIO flavor   : netcdf-fallback+etsf_io-fallback
 
 === Experimental features === 
  Bindings            : @enable_bindings@
  Exports             : no
  GW double-precision : no
 
 ++++++++++++++++++++++++++++++++++++++++++++++++++++++++++++++++++++++++++++++
 

 ++++++++++++++++++++++++++++++++++++++++++++++++++++++++++++++++++++++++++++++
 Default optimizations:
   --- None ---


 ++++++++++++++++++++++++++++++++++++++++++++++++++++++++++++++++++++++++++++++


 ++++++++++++++++++++++++++++++++++++++++++++++++++++++++++++++++++++++++++++++
 CPP options activated during the build:

                  CC_INTEL                 CXX_INTEL                  FC_INTEL
 
 HAVE_FC_ALLOCATABLE_DT...             HAVE_FC_ASYNC  HAVE_FC_COMMAND_ARGUMENT
 
        HAVE_FC_CONTIGUOUS           HAVE_FC_CPUTIME              HAVE_FC_EXIT
 
             HAVE_FC_FLUSH             HAVE_FC_GAMMA   HAVE_FC_IEEE_EXCEPTIONS
 
             HAVE_FC_IOMSG     HAVE_FC_ISO_C_BINDING        HAVE_FC_LONG_LINES
 
        HAVE_FC_MOVE_ALLOC           HAVE_FC_PRIVATE         HAVE_FC_PROTECTED
 
         HAVE_FC_STREAM_IO                  HAVE_FFT            HAVE_FFT_FFTW3
 
              HAVE_FFT_MPI           HAVE_FFT_SERIAL        HAVE_LIBPAW_ABINIT
 
               HAVE_LINALG         HAVE_LINALG_AXPBY        HAVE_LINALG_GEMM3M
 
  HAVE_LINALG_MKL_IMATCOPY   HAVE_LINALG_MKL_OMATADD  HAVE_LINALG_MKL_OMATCOPY
 
           HAVE_LINALG_MPI     HAVE_LINALG_SCALAPACK        HAVE_LINALG_SERIAL
 
                  HAVE_MPI                 HAVE_MPI2               HAVE_MPI_IO
 
 HAVE_MPI_TYPE_CREATE_S...                HAVE_NUMPY             HAVE_OS_LINUX
 
                HAVE_TIMER         HAVE_TIMER_ABINIT            HAVE_TIMER_MPI
 
         HAVE_TIMER_SERIAL         HAVE_TRIO_ETSF_IO          HAVE_TRIO_NETCDF
 
              USE_MACROAVE                                                      
 ++++++++++++++++++++++++++++++++++++++++++++++++++++++++++++++++++++++++++++++

- input  file    -> run.abi
- output file    -> run.aboA
- root for input  files -> indata/in
- root for output files -> outdata/out
 
-instrng :    97 lines of input have been read from file run.abi
 

 iofn2 : Please give name of formatted atomic psp file
 iofn2 : for atom type   1 , psp file is Mg.psp8

 iofn2 : Please give name of formatted atomic psp file
 iofn2 : for atom type   2 , psp file is Ni-sp.psp8

 iofn2 : Please give name of formatted atomic psp file
 iofn2 : for atom type   3 , psp file is H.psp8
  read the values zionpsp=  2.0 , pspcod=   8 , lmax=   1
nproj =      2     2     0     0
nprojso =      0     0     0
  read the values zionpsp= 18.0 , pspcod=   8 , lmax=   2
nproj =      2     2     2     0
nprojso =      0     0     0
  read the values zionpsp=  1.0 , pspcod=   8 , lmax=   1
nproj =      2     0     0     0
nprojso =      0     0     0
 
 inpspheads: deduce mpsang  =   3, n1xccc  =2501.
 
 invars1m : enter jdtset=0
 invars1 : treat image number     1
 
 symlatt : the Bravais lattice is mP (primitive monoclinic)
  xred   is defined in input file
 ingeo : takes atomic coordinates from input array xred
 
 symlatt : the Bravais lattice is mP (primitive monoclinic)
 
 symlatt : the Bravais lattice is mP (primitive monoclinic)
 
--- !COMMENT
message: |
    The Bravais lattice determined only from the primitive
    vectors, bravais(1)=  2, is more symmetric
    than the real one, iholohedry=  1, obtained by taking into
    account the atomic positions. Start deforming the primitive vector set.
src_file: symbrav.F90
src_line: 201
...
 
 
 symlatt : the Bravais lattice is aP (primitive triclinic)
 symspgr : spgroup=   1  P1   (=C1^1)
       Simple Lattice Grid
 invars2: take the default value of fband=  5.00000000E-01
       Simple Lattice Grid
  dtset%nelect=   207.000000000000     
 chkneu : initialized the occupation numbers for occopt=    4
    spin-unpolarized case :
  2.00  2.00  2.00  2.00  2.00  2.00  2.00  2.00  2.00  2.00  2.00  2.00
  2.00  2.00  2.00  2.00  2.00  2.00  2.00  2.00  2.00  2.00  2.00  2.00
  2.00  2.00  2.00  2.00  2.00  2.00  2.00  2.00  2.00  2.00  2.00  2.00
  2.00  2.00  2.00  2.00  2.00  2.00  2.00  2.00  2.00  2.00  2.00  2.00
  2.00  2.00  2.00  2.00  2.00  2.00  2.00  2.00  2.00  2.00  2.00  2.00
  2.00  2.00  2.00  2.00  2.00  2.00  2.00  2.00  2.00  2.00  2.00  2.00
  2.00  2.00  2.00  2.00  2.00  2.00  2.00  2.00  2.00  2.00  2.00  2.00
  2.00  2.00  2.00  2.00  2.00  2.00  2.00  2.00  2.00  2.00  2.00  2.00
  2.00  2.00  2.00  2.00  2.00  2.00  2.00  1.00  0.00  0.00  0.00  0.00
  0.00  0.00  0.00  0.00  0.00  0.00  0.00  0.00  0.00  0.00  0.00  0.00
  0.00  0.00  0.00  0.00  0.00  0.00  0.00  0.00  0.00  0.00  0.00  0.00
mpi_setup: mkmem  undefined in the input file.Use default mkmem  = nkpt
 mpi_setup: With nkpt_me=20 and mkmem  = 20, ground state wf handled in core.
mpi_setup: mkqmem undefined in the input file.Use default mkqmem = nkpt
 mpi_setup: With nkpt_me=20 and mkqmem = 20, ground state wf handled in core.
mpi_setup: mk1mem undefined in the input file.Use default mk1mem = nkpt
 mpi_setup: With nkpt_me=20 and mk1mem = 20, ground state wf handled in core.
 For input ecut=  1.000000E+01 best grid ngfft=      80      36      36
       max ecut=  1.067053E+01
 
 ==== FFT mesh ====
  FFT mesh divisions ........................    80   36   36
  Augmented FFT divisions ...................    81   37   36
  FFT algorithm .............................   312
  FFT cache size ............................    16
 getmpw: optimal value of mpw=    5580
 
 Symmetries : space group P1 (#  1); Bravais aP (primitive triclinic)
 
 getdim_nloc : deduce lmnmax  =  18, lnmax  =   6,
                      lmnmaxso=  18, lnmaxso=   6.
memory : analysis of memory needs
================================================================================
 Values of the parameters that define the memory need of the present run
   intxc =         0  ionmov =         0    iscf =         7 xclevel =         2
  lmnmax =         6   lnmax =         6   mband =       132  mffmem =         1
P  mgfft =        80   mkmem =        20 mpssoang=         3     mpw =      5580
  mqgrid =      3550   natom =        55    nfft =    103680    nkpt =        20
  nloalg =         4  nspden =         1 nspinor =         1  nsppol =         1
    nsym =         1  n1xccc =      2501  ntypat =         3  occopt =         4
================================================================================
P This job should need less than                     262.524 Mbytes of memory.
  Rough estimation (10% accuracy) of disk space for files :
_ WF disk file :    224.782 Mbytes ; DEN or POT disk file :      0.793 Mbytes.
================================================================================
 
 Biggest array : cg(disk), with    224.7823 MBytes.
 memana : allocated an array of    224.782 Mbytes, for testing purposes.
 memana : allocated     262.524 Mbytes, for testing purposes. 
 The job will continue.
--------------------------------------------------------------------------------
------------- Echo of variables that govern the present computation ------------
--------------------------------------------------------------------------------
-
- outvars: echo of selected default values                                      
-   accesswff0 =  0 , fftalg0 =312 , wfoptalg0 =  0
-
- outvars: echo of global parameters not present in the input file              
-  max_nthreads =    0
-
 -outvars: echo values of preprocessed input variables --------
 
 These variables are accessible in NetCDF format (outdata/out_OUT.nc)

            acell      1.0000000000E+00  1.0000000000E+00  1.0000000000E+00 Bohr
              amu      2.43050000E+01  5.86900000E+01  1.00794000E+00
             ecut      1.00000000E+01 Hartree
-          fftalg         312
           istwfk        2    3    0    0    6    7    0    0    0    0
                         0    0    0    0    4    5    0    0    8    9
              ixc          11
              kpt      0.00000000E+00  0.00000000E+00  0.00000000E+00
                       5.00000000E-01  0.00000000E+00  0.00000000E+00
                       0.00000000E+00  2.50000000E-01  0.00000000E+00
                       5.00000000E-01  2.50000000E-01  0.00000000E+00
                       0.00000000E+00  5.00000000E-01  0.00000000E+00
                       5.00000000E-01  5.00000000E-01  0.00000000E+00
                       0.00000000E+00  0.00000000E+00  2.50000000E-01
                       5.00000000E-01  0.00000000E+00  2.50000000E-01
                       0.00000000E+00  2.50000000E-01  2.50000000E-01
                       5.00000000E-01  2.50000000E-01  2.50000000E-01
                       0.00000000E+00  5.00000000E-01  2.50000000E-01
                       5.00000000E-01  5.00000000E-01  2.50000000E-01
                       0.00000000E+00 -2.50000000E-01  2.50000000E-01
                       5.00000000E-01 -2.50000000E-01  2.50000000E-01
                       0.00000000E+00  0.00000000E+00  5.00000000E-01
                       5.00000000E-01  0.00000000E+00  5.00000000E-01
                       0.00000000E+00  2.50000000E-01  5.00000000E-01
                       5.00000000E-01  2.50000000E-01  5.00000000E-01
                       0.00000000E+00  5.00000000E-01  5.00000000E-01
                       5.00000000E-01  5.00000000E-01  5.00000000E-01
         kptrlatt        2    0    0      0    4    0      0    0    4
          kptrlen      4.82843539E+01
P           mkmem          20
            natom          55
            nband         132
            ngfft          80      36      36
             nkpt          20
            nstep          50
             nsym           1
           ntypat           3
              occ      2.000000  2.000000  2.000000  2.000000  2.000000  2.000000
                       2.000000  2.000000  2.000000  2.000000  2.000000  2.000000
                       2.000000  2.000000  2.000000  2.000000  2.000000  2.000000
                       2.000000  2.000000  2.000000  2.000000  2.000000  2.000000
                       2.000000  2.000000  2.000000  2.000000  2.000000  2.000000
                       2.000000  2.000000  2.000000  2.000000  2.000000  2.000000
                       2.000000  2.000000  2.000000  2.000000  2.000000  2.000000
                       2.000000  2.000000  2.000000  2.000000  2.000000  2.000000
                       2.000000  2.000000  2.000000  2.000000  2.000000  2.000000
                       2.000000  2.000000  2.000000  2.000000  2.000000  2.000000
                       2.000000  2.000000  2.000000  2.000000  2.000000  2.000000
                       2.000000  2.000000  2.000000  2.000000  2.000000  2.000000
                       2.000000  2.000000  2.000000  2.000000  2.000000  2.000000
                       2.000000  2.000000  2.000000  2.000000  2.000000  2.000000
                       2.000000  2.000000  2.000000  2.000000  2.000000  2.000000
                       2.000000  2.000000  2.000000  2.000000  2.000000  2.000000
                       2.000000  2.000000  2.000000  2.000000  2.000000  2.000000
                       2.000000  1.000000  0.000000  0.000000  0.000000  0.000000
                       0.000000  0.000000  0.000000  0.000000  0.000000  0.000000
                       0.000000  0.000000  0.000000  0.000000  0.000000  0.000000
                       0.000000  0.000000  0.000000  0.000000  0.000000  0.000000
                       0.000000  0.000000  0.000000  0.000000  0.000000  0.000000
                       2.000000  2.000000  2.000000  2.000000  2.000000  2.000000
                       2.000000  2.000000  2.000000  2.000000  2.000000  2.000000
                       2.000000  2.000000  2.000000  2.000000  2.000000  2.000000
                       2.000000  2.000000  2.000000  2.000000  2.000000  2.000000
                       2.000000  2.000000  2.000000  2.000000  2.000000  2.000000
                       2.000000  2.000000  2.000000  2.000000  2.000000  2.000000
                       2.000000  2.000000  2.000000  2.000000  2.000000  2.000000
                       2.000000  2.000000  2.000000  2.000000  2.000000  2.000000
                       2.000000  2.000000  2.000000  2.000000  2.000000  2.000000
                       2.000000  2.000000  2.000000  2.000000  2.000000  2.000000
                       2.000000  2.000000  2.000000  2.000000  2.000000  2.000000
                       2.000000  2.000000  2.000000  2.000000  2.000000  2.000000
                       2.000000  2.000000  2.000000  2.000000  2.000000  2.000000
                       2.000000  2.000000  2.000000  2.000000  2.000000  2.000000
                       2.000000  2.000000  2.000000  2.000000  2.000000  2.000000
                       2.000000  2.000000  2.000000  2.000000  2.000000  2.000000
                       2.000000  2.000000  2.000000  2.000000  2.000000  2.000000
                       2.000000  1.000000  0.000000  0.000000  0.000000  0.000000
                       0.000000  0.000000  0.000000  0.000000  0.000000  0.000000
                       0.000000  0.000000  0.000000  0.000000  0.000000  0.000000
                       0.000000  0.000000  0.000000  0.000000  0.000000  0.000000
                       0.000000  0.000000  0.000000  0.000000  0.000000  0.000000
                       2.000000  2.000000  2.000000  2.000000  2.000000  2.000000
                       2.000000  2.000000  2.000000  2.000000  2.000000  2.000000
                       2.000000  2.000000  2.000000  2.000000  2.000000  2.000000
                       2.000000  2.000000  2.000000  2.000000  2.000000  2.000000
                       2.000000  2.000000  2.000000  2.000000  2.000000  2.000000
                       2.000000  2.000000  2.000000  2.000000  2.000000  2.000000
                       2.000000  2.000000  2.000000  2.000000  2.000000  2.000000
                       2.000000  2.000000  2.000000  2.000000  2.000000  2.000000
                       2.000000  2.000000  2.000000  2.000000  2.000000  2.000000
                       2.000000  2.000000  2.000000  2.000000  2.000000  2.000000
                       2.000000  2.000000  2.000000  2.000000  2.000000  2.000000
                       2.000000  2.000000  2.000000  2.000000  2.000000  2.000000
                       2.000000  2.000000  2.000000  2.000000  2.000000  2.000000
                       2.000000  2.000000  2.000000  2.000000  2.000000  2.000000
                       2.000000  2.000000  2.000000  2.000000  2.000000  2.000000
                       2.000000  2.000000  2.000000  2.000000  2.000000  2.000000
                       2.000000  2.000000  2.000000  2.000000  2.000000  2.000000
                       2.000000  1.000000  0.000000  0.000000  0.000000  0.000000
                       0.000000  0.000000  0.000000  0.000000  0.000000  0.000000
                       0.000000  0.000000  0.000000  0.000000  0.000000  0.000000
                       0.000000  0.000000  0.000000  0.000000  0.000000  0.000000
                       0.000000  0.000000  0.000000  0.000000  0.000000  0.000000
                       2.000000  2.000000  2.000000  2.000000  2.000000  2.000000
                       2.000000  2.000000  2.000000  2.000000  2.000000  2.000000
                       2.000000  2.000000  2.000000  2.000000  2.000000  2.000000
                       2.000000  2.000000  2.000000  2.000000  2.000000  2.000000
                       2.000000  2.000000  2.000000  2.000000  2.000000  2.000000
                       2.000000  2.000000  2.000000  2.000000  2.000000  2.000000
                       2.000000  2.000000  2.000000  2.000000  2.000000  2.000000
                       2.000000  2.000000  2.000000  2.000000  2.000000  2.000000
                       2.000000  2.000000  2.000000  2.000000  2.000000  2.000000
                       2.000000  2.000000  2.000000  2.000000  2.000000  2.000000
                       2.000000  2.000000  2.000000  2.000000  2.000000  2.000000
                       2.000000  2.000000  2.000000  2.000000  2.000000  2.000000
                       2.000000  2.000000  2.000000  2.000000  2.000000  2.000000
                       2.000000  2.000000  2.000000  2.000000  2.000000  2.000000
                       2.000000  2.000000  2.000000  2.000000  2.000000  2.000000
                       2.000000  2.000000  2.000000  2.000000  2.000000  2.000000
                       2.000000  2.000000  2.000000  2.000000  2.000000  2.000000
                       2.000000  1.000000  0.000000  0.000000  0.000000  0.000000
                       0.000000  0.000000  0.000000  0.000000  0.000000  0.000000
                       0.000000  0.000000  0.000000  0.000000  0.000000  0.000000
                       0.000000  0.000000  0.000000  0.000000  0.000000  0.000000
                       0.000000  0.000000  0.000000  0.000000  0.000000  0.000000
                       2.000000  2.000000  2.000000  2.000000  2.000000  2.000000
                       2.000000  2.000000  2.000000  2.000000  2.000000  2.000000
                       2.000000  2.000000  2.000000  2.000000  2.000000  2.000000
                       2.000000  2.000000  2.000000  2.000000  2.000000  2.000000
                       2.000000  2.000000  2.000000  2.000000  2.000000  2.000000
                       2.000000  2.000000  2.000000  2.000000  2.000000  2.000000
                       2.000000  2.000000  2.000000  2.000000  2.000000  2.000000
                       2.000000  2.000000  2.000000  2.000000  2.000000  2.000000
                       2.000000  2.000000  2.000000  2.000000  2.000000  2.000000
                       2.000000  2.000000  2.000000  2.000000  2.000000  2.000000
                       2.000000  2.000000  2.000000  2.000000  2.000000  2.000000
                       2.000000  2.000000  2.000000  2.000000  2.000000  2.000000
                       2.000000  2.000000  2.000000  2.000000  2.000000  2.000000
                       2.000000  2.000000  2.000000  2.000000  2.000000  2.000000
                       2.000000  2.000000  2.000000  2.000000  2.000000  2.000000
                       2.000000  2.000000  2.000000  2.000000  2.000000  2.000000
                       2.000000  2.000000  2.000000  2.000000  2.000000  2.000000
                       2.000000  1.000000  0.000000  0.000000  0.000000  0.000000
                       0.000000  0.000000  0.000000  0.000000  0.000000  0.000000
                       0.000000  0.000000  0.000000  0.000000  0.000000  0.000000
                       0.000000  0.000000  0.000000  0.000000  0.000000  0.000000
                       0.000000  0.000000  0.000000  0.000000  0.000000  0.000000
                       2.000000  2.000000  2.000000  2.000000  2.000000  2.000000
                       2.000000  2.000000  2.000000  2.000000  2.000000  2.000000
                       2.000000  2.000000  2.000000  2.000000  2.000000  2.000000
                       2.000000  2.000000  2.000000  2.000000  2.000000  2.000000
                       2.000000  2.000000  2.000000  2.000000  2.000000  2.000000
                       2.000000  2.000000  2.000000  2.000000  2.000000  2.000000
                       2.000000  2.000000  2.000000  2.000000  2.000000  2.000000
                       2.000000  2.000000  2.000000  2.000000  2.000000  2.000000
                       2.000000  2.000000  2.000000  2.000000  2.000000  2.000000
                       2.000000  2.000000  2.000000  2.000000  2.000000  2.000000
                       2.000000  2.000000  2.000000  2.000000  2.000000  2.000000
                       2.000000  2.000000  2.000000  2.000000  2.000000  2.000000
                       2.000000  2.000000  2.000000  2.000000  2.000000  2.000000
                       2.000000  2.000000  2.000000  2.000000  2.000000  2.000000
                       2.000000  2.000000  2.000000  2.000000  2.000000  2.000000
                       2.000000  2.000000  2.000000  2.000000  2.000000  2.000000
                       2.000000  2.000000  2.000000  2.000000  2.000000  2.000000
                       2.000000  1.000000  0.000000  0.000000  0.000000  0.000000
                       0.000000  0.000000  0.000000  0.000000  0.000000  0.000000
                       0.000000  0.000000  0.000000  0.000000  0.000000  0.000000
                       0.000000  0.000000  0.000000  0.000000  0.000000  0.000000
                       0.000000  0.000000  0.000000  0.000000  0.000000  0.000000
                       2.000000  2.000000  2.000000  2.000000  2.000000  2.000000
                       2.000000  2.000000  2.000000  2.000000  2.000000  2.000000
                       2.000000  2.000000  2.000000  2.000000  2.000000  2.000000
                       2.000000  2.000000  2.000000  2.000000  2.000000  2.000000
                       2.000000  2.000000  2.000000  2.000000  2.000000  2.000000
                       2.000000  2.000000  2.000000  2.000000  2.000000  2.000000
                       2.000000  2.000000  2.000000  2.000000  2.000000  2.000000
                       2.000000  2.000000  2.000000  2.000000  2.000000  2.000000
                       2.000000  2.000000  2.000000  2.000000  2.000000  2.000000
                       2.000000  2.000000  2.000000  2.000000  2.000000  2.000000
                       2.000000  2.000000  2.000000  2.000000  2.000000  2.000000
                       2.000000  2.000000  2.000000  2.000000  2.000000  2.000000
                       2.000000  2.000000  2.000000  2.000000  2.000000  2.000000
                       2.000000  2.000000  2.000000  2.000000  2.000000  2.000000
                       2.000000  2.000000  2.000000  2.000000  2.000000  2.000000
                       2.000000  2.000000  2.000000  2.000000  2.000000  2.000000
                       2.000000  2.000000  2.000000  2.000000  2.000000  2.000000
                       2.000000  1.000000  0.000000  0.000000  0.000000  0.000000
                       0.000000  0.000000  0.000000  0.000000  0.000000  0.000000
                       0.000000  0.000000  0.000000  0.000000  0.000000  0.000000
                       0.000000  0.000000  0.000000  0.000000  0.000000  0.000000
                       0.000000  0.000000  0.000000  0.000000  0.000000  0.000000
                       2.000000  2.000000  2.000000  2.000000  2.000000  2.000000
                       2.000000  2.000000  2.000000  2.000000  2.000000  2.000000
                       2.000000  2.000000  2.000000  2.000000  2.000000  2.000000
                       2.000000  2.000000  2.000000  2.000000  2.000000  2.000000
                       2.000000  2.000000  2.000000  2.000000  2.000000  2.000000
                       2.000000  2.000000  2.000000  2.000000  2.000000  2.000000
                       2.000000  2.000000  2.000000  2.000000  2.000000  2.000000
                       2.000000  2.000000  2.000000  2.000000  2.000000  2.000000
                       2.000000  2.000000  2.000000  2.000000  2.000000  2.000000
                       2.000000  2.000000  2.000000  2.000000  2.000000  2.000000
                       2.000000  2.000000  2.000000  2.000000  2.000000  2.000000
                       2.000000  2.000000  2.000000  2.000000  2.000000  2.000000
                       2.000000  2.000000  2.000000  2.000000  2.000000  2.000000
                       2.000000  2.000000  2.000000  2.000000  2.000000  2.000000
                       2.000000  2.000000  2.000000  2.000000  2.000000  2.000000
                       2.000000  2.000000  2.000000  2.000000  2.000000  2.000000
                       2.000000  2.000000  2.000000  2.000000  2.000000  2.000000
                       2.000000  1.000000  0.000000  0.000000  0.000000  0.000000
                       0.000000  0.000000  0.000000  0.000000  0.000000  0.000000
                       0.000000  0.000000  0.000000  0.000000  0.000000  0.000000
                       0.000000  0.000000  0.000000  0.000000  0.000000  0.000000
                       0.000000  0.000000  0.000000  0.000000  0.000000  0.000000
                       2.000000  2.000000  2.000000  2.000000  2.000000  2.000000
                       2.000000  2.000000  2.000000  2.000000  2.000000  2.000000
                       2.000000  2.000000  2.000000  2.000000  2.000000  2.000000
                       2.000000  2.000000  2.000000  2.000000  2.000000  2.000000
                       2.000000  2.000000  2.000000  2.000000  2.000000  2.000000
                       2.000000  2.000000  2.000000  2.000000  2.000000  2.000000
                       2.000000  2.000000  2.000000  2.000000  2.000000  2.000000
                       2.000000  2.000000  2.000000  2.000000  2.000000  2.000000
                       2.000000  2.000000  2.000000  2.000000  2.000000  2.000000
                       2.000000  2.000000  2.000000  2.000000  2.000000  2.000000
                       2.000000  2.000000  2.000000  2.000000  2.000000  2.000000
                       2.000000  2.000000  2.000000  2.000000  2.000000  2.000000
                       2.000000  2.000000  2.000000  2.000000  2.000000  2.000000
                       2.000000  2.000000  2.000000  2.000000  2.000000  2.000000
                       2.000000  2.000000  2.000000  2.000000  2.000000  2.000000
                       2.000000  2.000000  2.000000  2.000000  2.000000  2.000000
                       2.000000  2.000000  2.000000  2.000000  2.000000  2.000000
                       2.000000  1.000000  0.000000  0.000000  0.000000  0.000000
                       0.000000  0.000000  0.000000  0.000000  0.000000  0.000000
                       0.000000  0.000000  0.000000  0.000000  0.000000  0.000000
                       0.000000  0.000000  0.000000  0.000000  0.000000  0.000000
                       0.000000  0.000000  0.000000  0.000000  0.000000  0.000000
                       2.000000  2.000000  2.000000  2.000000  2.000000  2.000000
                       2.000000  2.000000  2.000000  2.000000  2.000000  2.000000
                       2.000000  2.000000  2.000000  2.000000  2.000000  2.000000
                       2.000000  2.000000  2.000000  2.000000  2.000000  2.000000
                       2.000000  2.000000  2.000000  2.000000  2.000000  2.000000
                       2.000000  2.000000  2.000000  2.000000  2.000000  2.000000
                       2.000000  2.000000  2.000000  2.000000  2.000000  2.000000
                       2.000000  2.000000  2.000000  2.000000  2.000000  2.000000
                       2.000000  2.000000  2.000000  2.000000  2.000000  2.000000
                       2.000000  2.000000  2.000000  2.000000  2.000000  2.000000
                       2.000000  2.000000  2.000000  2.000000  2.000000  2.000000
                       2.000000  2.000000  2.000000  2.000000  2.000000  2.000000
                       2.000000  2.000000  2.000000  2.000000  2.000000  2.000000
                       2.000000  2.000000  2.000000  2.000000  2.000000  2.000000
                       2.000000  2.000000  2.000000  2.000000  2.000000  2.000000
                       2.000000  2.000000  2.000000  2.000000  2.000000  2.000000
                       2.000000  2.000000  2.000000  2.000000  2.000000  2.000000
                       2.000000  1.000000  0.000000  0.000000  0.000000  0.000000
                       0.000000  0.000000  0.000000  0.000000  0.000000  0.000000
                       0.000000  0.000000  0.000000  0.000000  0.000000  0.000000
                       0.000000  0.000000  0.000000  0.000000  0.000000  0.000000
                       0.000000  0.000000  0.000000  0.000000  0.000000  0.000000
                       2.000000  2.000000  2.000000  2.000000  2.000000  2.000000
                       2.000000  2.000000  2.000000  2.000000  2.000000  2.000000
                       2.000000  2.000000  2.000000  2.000000  2.000000  2.000000
                       2.000000  2.000000  2.000000  2.000000  2.000000  2.000000
                       2.000000  2.000000  2.000000  2.000000  2.000000  2.000000
                       2.000000  2.000000  2.000000  2.000000  2.000000  2.000000
                       2.000000  2.000000  2.000000  2.000000  2.000000  2.000000
                       2.000000  2.000000  2.000000  2.000000  2.000000  2.000000
                       2.000000  2.000000  2.000000  2.000000  2.000000  2.000000
                       2.000000  2.000000  2.000000  2.000000  2.000000  2.000000
                       2.000000  2.000000  2.000000  2.000000  2.000000  2.000000
                       2.000000  2.000000  2.000000  2.000000  2.000000  2.000000
                       2.000000  2.000000  2.000000  2.000000  2.000000  2.000000
                       2.000000  2.000000  2.000000  2.000000  2.000000  2.000000
                       2.000000  2.000000  2.000000  2.000000  2.000000  2.000000
                       2.000000  2.000000  2.000000  2.000000  2.000000  2.000000
                       2.000000  2.000000  2.000000  2.000000  2.000000  2.000000
                       2.000000  1.000000  0.000000  0.000000  0.000000  0.000000
                       0.000000  0.000000  0.000000  0.000000  0.000000  0.000000
                       0.000000  0.000000  0.000000  0.000000  0.000000  0.000000
                       0.000000  0.000000  0.000000  0.000000  0.000000  0.000000
                       0.000000  0.000000  0.000000  0.000000  0.000000  0.000000
                       2.000000  2.000000  2.000000  2.000000  2.000000  2.000000
                       2.000000  2.000000  2.000000  2.000000  2.000000  2.000000
                       2.000000  2.000000  2.000000  2.000000  2.000000  2.000000
                       2.000000  2.000000  2.000000  2.000000  2.000000  2.000000
                       2.000000  2.000000  2.000000  2.000000  2.000000  2.000000
                       2.000000  2.000000  2.000000  2.000000  2.000000  2.000000
                       2.000000  2.000000  2.000000  2.000000  2.000000  2.000000
                       2.000000  2.000000  2.000000  2.000000  2.000000  2.000000
                       2.000000  2.000000  2.000000  2.000000  2.000000  2.000000
                       2.000000  2.000000  2.000000  2.000000  2.000000  2.000000
                       2.000000  2.000000  2.000000  2.000000  2.000000  2.000000
                       2.000000  2.000000  2.000000  2.000000  2.000000  2.000000
                       2.000000  2.000000  2.000000  2.000000  2.000000  2.000000
                       2.000000  2.000000  2.000000  2.000000  2.000000  2.000000
                       2.000000  2.000000  2.000000  2.000000  2.000000  2.000000
                       2.000000  2.000000  2.000000  2.000000  2.000000  2.000000
                       2.000000  2.000000  2.000000  2.000000  2.000000  2.000000
                       2.000000  1.000000  0.000000  0.000000  0.000000  0.000000
                       0.000000  0.000000  0.000000  0.000000  0.000000  0.000000
                       0.000000  0.000000  0.000000  0.000000  0.000000  0.000000
                       0.000000  0.000000  0.000000  0.000000  0.000000  0.000000
                       0.000000  0.000000  0.000000  0.000000  0.000000  0.000000
                       2.000000  2.000000  2.000000  2.000000  2.000000  2.000000
                       2.000000  2.000000  2.000000  2.000000  2.000000  2.000000
                       2.000000  2.000000  2.000000  2.000000  2.000000  2.000000
                       2.000000  2.000000  2.000000  2.000000  2.000000  2.000000
                       2.000000  2.000000  2.000000  2.000000  2.000000  2.000000
                       2.000000  2.000000  2.000000  2.000000  2.000000  2.000000
                       2.000000  2.000000  2.000000  2.000000  2.000000  2.000000
                       2.000000  2.000000  2.000000  2.000000  2.000000  2.000000
                       2.000000  2.000000  2.000000  2.000000  2.000000  2.000000
                       2.000000  2.000000  2.000000  2.000000  2.000000  2.000000
                       2.000000  2.000000  2.000000  2.000000  2.000000  2.000000
                       2.000000  2.000000  2.000000  2.000000  2.000000  2.000000
                       2.000000  2.000000  2.000000  2.000000  2.000000  2.000000
                       2.000000  2.000000  2.000000  2.000000  2.000000  2.000000
                       2.000000  2.000000  2.000000  2.000000  2.000000  2.000000
                       2.000000  2.000000  2.000000  2.000000  2.000000  2.000000
                       2.000000  2.000000  2.000000  2.000000  2.000000  2.000000
                       2.000000  1.000000  0.000000  0.000000  0.000000  0.000000
                       0.000000  0.000000  0.000000  0.000000  0.000000  0.000000
                       0.000000  0.000000  0.000000  0.000000  0.000000  0.000000
                       0.000000  0.000000  0.000000  0.000000  0.000000  0.000000
                       0.000000  0.000000  0.000000  0.000000  0.000000  0.000000
                       2.000000  2.000000  2.000000  2.000000  2.000000  2.000000
                       2.000000  2.000000  2.000000  2.000000  2.000000  2.000000
                       2.000000  2.000000  2.000000  2.000000  2.000000  2.000000
                       2.000000  2.000000  2.000000  2.000000  2.000000  2.000000
                       2.000000  2.000000  2.000000  2.000000  2.000000  2.000000
                       2.000000  2.000000  2.000000  2.000000  2.000000  2.000000
                       2.000000  2.000000  2.000000  2.000000  2.000000  2.000000
                       2.000000  2.000000  2.000000  2.000000  2.000000  2.000000
                       2.000000  2.000000  2.000000  2.000000  2.000000  2.000000
                       2.000000  2.000000  2.000000  2.000000  2.000000  2.000000
                       2.000000  2.000000  2.000000  2.000000  2.000000  2.000000
                       2.000000  2.000000  2.000000  2.000000  2.000000  2.000000
                       2.000000  2.000000  2.000000  2.000000  2.000000  2.000000
                       2.000000  2.000000  2.000000  2.000000  2.000000  2.000000
                       2.000000  2.000000  2.000000  2.000000  2.000000  2.000000
                       2.000000  2.000000  2.000000  2.000000  2.000000  2.000000
                       2.000000  2.000000  2.000000  2.000000  2.000000  2.000000
                       2.000000  1.000000  0.000000  0.000000  0.000000  0.000000
                       0.000000  0.000000  0.000000  0.000000  0.000000  0.000000
                       0.000000  0.000000  0.000000  0.000000  0.000000  0.000000
                       0.000000  0.000000  0.000000  0.000000  0.000000  0.000000
                       0.000000  0.000000  0.000000  0.000000  0.000000  0.000000
                       2.000000  2.000000  2.000000  2.000000  2.000000  2.000000
                       2.000000  2.000000  2.000000  2.000000  2.000000  2.000000
                       2.000000  2.000000  2.000000  2.000000  2.000000  2.000000
                       2.000000  2.000000  2.000000  2.000000  2.000000  2.000000
                       2.000000  2.000000  2.000000  2.000000  2.000000  2.000000
                       2.000000  2.000000  2.000000  2.000000  2.000000  2.000000
                       2.000000  2.000000  2.000000  2.000000  2.000000  2.000000
                       2.000000  2.000000  2.000000  2.000000  2.000000  2.000000
                       2.000000  2.000000  2.000000  2.000000  2.000000  2.000000
                       2.000000  2.000000  2.000000  2.000000  2.000000  2.000000
                       2.000000  2.000000  2.000000  2.000000  2.000000  2.000000
                       2.000000  2.000000  2.000000  2.000000  2.000000  2.000000
                       2.000000  2.000000  2.000000  2.000000  2.000000  2.000000
                       2.000000  2.000000  2.000000  2.000000  2.000000  2.000000
                       2.000000  2.000000  2.000000  2.000000  2.000000  2.000000
                       2.000000  2.000000  2.000000  2.000000  2.000000  2.000000
                       2.000000  2.000000  2.000000  2.000000  2.000000  2.000000
                       2.000000  1.000000  0.000000  0.000000  0.000000  0.000000
                       0.000000  0.000000  0.000000  0.000000  0.000000  0.000000
                       0.000000  0.000000  0.000000  0.000000  0.000000  0.000000
                       0.000000  0.000000  0.000000  0.000000  0.000000  0.000000
                       0.000000  0.000000  0.000000  0.000000  0.000000  0.000000
                       2.000000  2.000000  2.000000  2.000000  2.000000  2.000000
                       2.000000  2.000000  2.000000  2.000000  2.000000  2.000000
                       2.000000  2.000000  2.000000  2.000000  2.000000  2.000000
                       2.000000  2.000000  2.000000  2.000000  2.000000  2.000000
                       2.000000  2.000000  2.000000  2.000000  2.000000  2.000000
                       2.000000  2.000000  2.000000  2.000000  2.000000  2.000000
                       2.000000  2.000000  2.000000  2.000000  2.000000  2.000000
                       2.000000  2.000000  2.000000  2.000000  2.000000  2.000000
                       2.000000  2.000000  2.000000  2.000000  2.000000  2.000000
                       2.000000  2.000000  2.000000  2.000000  2.000000  2.000000
                       2.000000  2.000000  2.000000  2.000000  2.000000  2.000000
                       2.000000  2.000000  2.000000  2.000000  2.000000  2.000000
                       2.000000  2.000000  2.000000  2.000000  2.000000  2.000000
                       2.000000  2.000000  2.000000  2.000000  2.000000  2.000000
                       2.000000  2.000000  2.000000  2.000000  2.000000  2.000000
                       2.000000  2.000000  2.000000  2.000000  2.000000  2.000000
                       2.000000  2.000000  2.000000  2.000000  2.000000  2.000000
                       2.000000  1.000000  0.000000  0.000000  0.000000  0.000000
                       0.000000  0.000000  0.000000  0.000000  0.000000  0.000000
                       0.000000  0.000000  0.000000  0.000000  0.000000  0.000000
                       0.000000  0.000000  0.000000  0.000000  0.000000  0.000000
                       0.000000  0.000000  0.000000  0.000000  0.000000  0.000000
                       2.000000  2.000000  2.000000  2.000000  2.000000  2.000000
                       2.000000  2.000000  2.000000  2.000000  2.000000  2.000000
                       2.000000  2.000000  2.000000  2.000000  2.000000  2.000000
                       2.000000  2.000000  2.000000  2.000000  2.000000  2.000000
                       2.000000  2.000000  2.000000  2.000000  2.000000  2.000000
                       2.000000  2.000000  2.000000  2.000000  2.000000  2.000000
                       2.000000  2.000000  2.000000  2.000000  2.000000  2.000000
                       2.000000  2.000000  2.000000  2.000000  2.000000  2.000000
                       2.000000  2.000000  2.000000  2.000000  2.000000  2.000000
                       2.000000  2.000000  2.000000  2.000000  2.000000  2.000000
                       2.000000  2.000000  2.000000  2.000000  2.000000  2.000000
                       2.000000  2.000000  2.000000  2.000000  2.000000  2.000000
                       2.000000  2.000000  2.000000  2.000000  2.000000  2.000000
                       2.000000  2.000000  2.000000  2.000000  2.000000  2.000000
                       2.000000  2.000000  2.000000  2.000000  2.000000  2.000000
                       2.000000  2.000000  2.000000  2.000000  2.000000  2.000000
                       2.000000  2.000000  2.000000  2.000000  2.000000  2.000000
                       2.000000  1.000000  0.000000  0.000000  0.000000  0.000000
                       0.000000  0.000000  0.000000  0.000000  0.000000  0.000000
                       0.000000  0.000000  0.000000  0.000000  0.000000  0.000000
                       0.000000  0.000000  0.000000  0.000000  0.000000  0.000000
                       0.000000  0.000000  0.000000  0.000000  0.000000  0.000000
                       2.000000  2.000000  2.000000  2.000000  2.000000  2.000000
                       2.000000  2.000000  2.000000  2.000000  2.000000  2.000000
                       2.000000  2.000000  2.000000  2.000000  2.000000  2.000000
                       2.000000  2.000000  2.000000  2.000000  2.000000  2.000000
                       2.000000  2.000000  2.000000  2.000000  2.000000  2.000000
                       2.000000  2.000000  2.000000  2.000000  2.000000  2.000000
                       2.000000  2.000000  2.000000  2.000000  2.000000  2.000000
                       2.000000  2.000000  2.000000  2.000000  2.000000  2.000000
                       2.000000  2.000000  2.000000  2.000000  2.000000  2.000000
                       2.000000  2.000000  2.000000  2.000000  2.000000  2.000000
                       2.000000  2.000000  2.000000  2.000000  2.000000  2.000000
                       2.000000  2.000000  2.000000  2.000000  2.000000  2.000000
                       2.000000  2.000000  2.000000  2.000000  2.000000  2.000000
                       2.000000  2.000000  2.000000  2.000000  2.000000  2.000000
                       2.000000  2.000000  2.000000  2.000000  2.000000  2.000000
                       2.000000  2.000000  2.000000  2.000000  2.000000  2.000000
                       2.000000  2.000000  2.000000  2.000000  2.000000  2.000000
                       2.000000  1.000000  0.000000  0.000000  0.000000  0.000000
                       0.000000  0.000000  0.000000  0.000000  0.000000  0.000000
                       0.000000  0.000000  0.000000  0.000000  0.000000  0.000000
                       0.000000  0.000000  0.000000  0.000000  0.000000  0.000000
                       0.000000  0.000000  0.000000  0.000000  0.000000  0.000000
                       2.000000  2.000000  2.000000  2.000000  2.000000  2.000000
                       2.000000  2.000000  2.000000  2.000000  2.000000  2.000000
                       2.000000  2.000000  2.000000  2.000000  2.000000  2.000000
                       2.000000  2.000000  2.000000  2.000000  2.000000  2.000000
                       2.000000  2.000000  2.000000  2.000000  2.000000  2.000000
                       2.000000  2.000000  2.000000  2.000000  2.000000  2.000000
                       2.000000  2.000000  2.000000  2.000000  2.000000  2.000000
                       2.000000  2.000000  2.000000  2.000000  2.000000  2.000000
                       2.000000  2.000000  2.000000  2.000000  2.000000  2.000000
                       2.000000  2.000000  2.000000  2.000000  2.000000  2.000000
                       2.000000  2.000000  2.000000  2.000000  2.000000  2.000000
                       2.000000  2.000000  2.000000  2.000000  2.000000  2.000000
                       2.000000  2.000000  2.000000  2.000000  2.000000  2.000000
                       2.000000  2.000000  2.000000  2.000000  2.000000  2.000000
                       2.000000  2.000000  2.000000  2.000000  2.000000  2.000000
                       2.000000  2.000000  2.000000  2.000000  2.000000  2.000000
                       2.000000  2.000000  2.000000  2.000000  2.000000  2.000000
                       2.000000  1.000000  0.000000  0.000000  0.000000  0.000000
                       0.000000  0.000000  0.000000  0.000000  0.000000  0.000000
                       0.000000  0.000000  0.000000  0.000000  0.000000  0.000000
                       0.000000  0.000000  0.000000  0.000000  0.000000  0.000000
                       0.000000  0.000000  0.000000  0.000000  0.000000  0.000000
                       2.000000  2.000000  2.000000  2.000000  2.000000  2.000000
                       2.000000  2.000000  2.000000  2.000000  2.000000  2.000000
                       2.000000  2.000000  2.000000  2.000000  2.000000  2.000000
                       2.000000  2.000000  2.000000  2.000000  2.000000  2.000000
                       2.000000  2.000000  2.000000  2.000000  2.000000  2.000000
                       2.000000  2.000000  2.000000  2.000000  2.000000  2.000000
                       2.000000  2.000000  2.000000  2.000000  2.000000  2.000000
                       2.000000  2.000000  2.000000  2.000000  2.000000  2.000000
                       2.000000  2.000000  2.000000  2.000000  2.000000  2.000000
                       2.000000  2.000000  2.000000  2.000000  2.000000  2.000000
                       2.000000  2.000000  2.000000  2.000000  2.000000  2.000000
                       2.000000  2.000000  2.000000  2.000000  2.000000  2.000000
                       2.000000  2.000000  2.000000  2.000000  2.000000  2.000000
                       2.000000  2.000000  2.000000  2.000000  2.000000  2.000000
                       2.000000  2.000000  2.000000  2.000000  2.000000  2.000000
                       2.000000  2.000000  2.000000  2.000000  2.000000  2.000000
                       2.000000  2.000000  2.000000  2.000000  2.000000  2.000000
                       2.000000  1.000000  0.000000  0.000000  0.000000  0.000000
                       0.000000  0.000000  0.000000  0.000000  0.000000  0.000000
                       0.000000  0.000000  0.000000  0.000000  0.000000  0.000000
                       0.000000  0.000000  0.000000  0.000000  0.000000  0.000000
                       0.000000  0.000000  0.000000  0.000000  0.000000  0.000000
           occopt           4
         prtfsurf           1
            rprim      2.7156272628E+01  0.0000000000E+00  0.0000000000E+00
                       0.0000000000E+00  1.2071088481E+01  0.0000000000E+00
                      -4.8475955256E+00  0.0000000000E+00  1.1240333967E+01
          spgroup           1
           tolwfr      1.00000000E-08
           tsmear      3.00000000E-02 Hartree
            typat      1  1  1  1  1  1  1  1  1  1  1  1  1  1  1  1  2  2  2  2
                       2  2  2  2  3  3  3  3  3  3  3  3  3  3  3  3  3  3  3  3
                       3  3  3  3  3  3  3  3  3  3  3  3  3  3  3
              wtk        0.03125    0.03125    0.06250    0.06250    0.03125    0.03125
                         0.06250    0.06250    0.06250    0.06250    0.06250    0.06250
                         0.06250    0.06250    0.03125    0.03125    0.06250    0.06250
                         0.03125    0.03125
           xangst      3.5932724515E+00  3.1250827648E+00  5.3672939181E-01
                       9.4712589085E+00  3.0981393717E+00  2.5188897522E+00
                       8.1733022800E+00  3.3593596331E+00  5.4501808397E+00
                       2.2932007862E+00  3.3027261934E+00  3.5105436800E+00
                       1.0776120590E+01  2.0913476826E-02  4.2191859665E-01
                       2.3096930429E+00  6.3201690176E+00  2.4691930073E+00
                       1.0252868265E+00  1.1421287894E-01  5.4423711194E+00
                       9.5010043251E+00  6.0530270740E-02  3.3946149876E+00
                       1.3717591758E+01  1.9548416378E-01  1.4756950467E+00
                       1.2428137603E+01  6.2515198273E+00  4.4491822294E+00
                       6.5513597875E+00  3.3338600046E+00  1.5886974918E+00
                       5.2382315128E+00  3.0702441281E+00  4.5217791682E+00
                       1.3716771878E+01  3.4051534275E+00  1.4592365096E+00
                      -1.8883615023E+00  3.0381647518E+00  4.4399387663E+00
                       6.5319895382E+00  1.6137999372E-01  1.5004928125E+00
                       5.2503739312E+00  6.2830815855E+00  4.4760975468E+00
                       1.5235916074E+00  1.4823720666E+00  4.6685671381E-01
                       1.1575194521E+01  1.5027105889E+00  2.4818448076E+00
                       1.0266341099E+01  4.9637888060E+00  5.4515965062E+00
                       2.3673428984E-01  4.9467080848E+00  3.4380541645E+00
                       8.6869141925E+00  4.6939128245E+00  5.3417168464E-01
                       4.3871807525E+00  4.6871931532E+00  2.5390240306E+00
                       3.0911332555E+00  1.7559782548E+00  5.5084726006E+00
                       7.3864035143E+00  1.6207625089E+00  3.5271987195E+00
                       2.2131920291E+00  1.9571410791E+00  1.8151666335E+00
                       1.0847507931E+01  2.0087988360E+00  1.1726973366E+00
                       9.4915050275E+00  4.4413094522E+00  4.1611085404E+00
                       9.2046279455E-01  4.4675248723E+00  4.7883505985E+00
                       9.5409311730E+00  5.1512435042E+00  1.7772770070E+00
                       3.7137630560E+00  5.1685926513E+00  1.1839452596E+00
                       2.4003252390E+00  1.2748661222E+00  4.1651949226E+00
                       8.3078339464E+00  1.4550325120E+00  4.7721656693E+00
                      -2.2662910249E-01  2.0658350997E+00  5.2154917769E+00
                       1.0798928521E+01  2.0693418950E+00  3.7133751908E+00
                       1.2037663207E+01  4.4124052514E+00  7.3063838856E-01
                       1.0405649908E+00  4.3512935490E+00  2.2355742865E+00
                       6.8973876326E+00  5.2941692135E+00  5.2455592753E+00
                       3.5830513707E+00  5.2866511379E+00  3.7405638544E+00
                       4.8546286776E+00  1.1685101311E+00  7.6607732658E-01
                       8.1949266473E+00  1.2168781995E+00  2.2534604578E+00
                       1.7684266134E-02  1.8929059865E+00  3.1090273725E-01
                       1.3086296463E+01  1.8988849285E+00  2.6296854655E+00
                       1.1770674704E+01  4.5280871648E+00  5.5754129166E+00
                      -1.2750972447E+00  4.5648422106E+00  3.2783764275E+00
                       7.1809433788E+00  5.0634952824E+00  3.0935622382E-01
                       5.8981201110E+00  5.0617960464E+00  2.7351576512E+00
                       4.5998865335E+00  1.3662556333E+00  5.6824852977E+00
                       5.8679134638E+00  1.4977217601E+00  3.2584383838E+00
                       1.5974239896E+00  6.3150012426E+00  4.1714817971E-01
                       1.1517539534E+01  6.3370327217E+00  2.5015389304E+00
                       1.0239319983E+01  1.2876416184E-01  5.4649026006E+00
                       3.2930095652E-01  1.1358688633E-01  3.3896897706E+00
                       8.7961404267E+00  3.1431153431E+00  4.5227783289E-01
                       4.2324054686E+00  3.1361910276E+00  2.5914508773E+00
                       3.0213786936E+00  3.3103977089E+00  5.5693517677E+00
            xcart      6.7903008542E+00  5.9055505680E+00  1.0142715580E+00
                       1.7898085471E+01  5.8546349341E+00  4.7600117907E+00
                       1.5445302910E+01  6.3482696885E+00  1.0299349162E+01
                       4.3335214536E+00  6.2412479974E+00  6.6339661327E+00
                       2.0363916689E+01  3.9520743687E-02  7.9731059804E-01
                       4.3646873022E+00  1.1943388557E+01  4.6660985531E+00
                       1.9375113097E+00  2.1583106204E-01  1.0284590929E+01
                       1.7954296162E+01  1.1438563445E-01  6.4148926532E+00
                       2.5922491626E+01  3.6941153286E-01  2.7886594939E+00
                       2.3485776411E+01  1.1813660388E+01  8.4077359289E+00
                       1.2380275796E+01  6.3000823740E+00  3.0022031675E+00
                       9.8988229798E+00  5.8019205631E+00  8.5449242612E+00
                       2.5920942277E+01  6.4348074184E+00  2.7575573662E+00
                      -3.5684860792E+00  5.7412993274E+00  8.3902683151E+00
                       1.2343671330E+01  3.0496399146E-01  2.8355204799E+00
                       9.9217688252E+00  1.1873303467E+01  8.4585985076E+00
                       2.8791708763E+00  2.8012772329E+00  8.8223133240E-01
                       2.1873947579E+01  2.8397114700E+00  4.6900069907E+00
                       1.9400573064E+01  9.3802014249E+00  1.0302024384E+01
                       4.4736297406E-01  9.3479235395E+00  6.4969808009E+00
                       1.6415888764E+01  8.8702097300E+00  1.0094381919E+00
                       8.2905701177E+00  8.8575113916E+00  4.7980600626E+00
                       5.8413952931E+00  3.3183179968E+00  1.0409504626E+01
                       1.3958279749E+01  3.0627972683E+00  6.6654395961E+00
                       4.1823268145E+00  3.6984606428E+00  3.4301678228E+00
                       2.0498819214E+01  3.7960796561E+00  2.2160768029E+00
                       1.7936345091E+01  8.3928585360E+00  7.8633555506E+00
                       1.7394225972E+00  8.4423985004E+00  9.0486712594E+00
                       1.8029746970E+01  9.7344394668E+00  3.3585668055E+00
                       7.0179950983E+00  9.7672246034E+00  2.2373322969E+00
                       4.5359573317E+00  2.4091478270E+00  7.8710776938E+00
                       1.5699530916E+01  2.7496129621E+00  9.0180861758E+00
                      -4.2826693745E-01  3.9038625741E+00  9.8558511067E+00
                       2.0407017434E+01  3.9104894569E+00  7.0172621392E+00
                       2.2747886741E+01  8.3382375125E+00  1.3807064566E+00
                       1.9663828561E+00  8.2227531314E+00  4.2246231512E+00
                       1.3034173658E+01  1.0004529915E+01  9.9126704441E+00
                       6.7709858106E+00  9.9903228108E+00  7.0686412674E+00
                       9.1739186776E+00  2.2081641314E+00  1.4476763439E+00
                       1.5486167043E+01  2.2995665341E+00  4.2584231165E+00
                       3.3418419854E-02  3.5770739098E+00  5.8752102736E-01
                       2.4729516410E+01  3.5883724728E+00  4.9693853453E+00
                       2.2243351590E+01  8.5568446473E+00  1.0536003490E+01
                      -2.4095845854E+00  8.6263016179E+00  6.1952336084E+00
                       1.3570016362E+01  9.5686193589E+00  5.8459854053E-01
                       1.1145831709E+01  9.5654082682E+00  5.1686988910E+00
                       8.6925257906E+00  2.5818489744E+00  1.0738340967E+01
                       1.1088749418E+01  2.8302839499E+00  6.1575561663E+00
                       3.0186938585E+00  1.1933622877E+01  7.8829581648E-01
                       2.1764995444E+01  1.1975256339E+01  4.7272234892E+00
                       1.9349510555E+01  2.4332900160E-01  1.0327169258E+01
                       6.2228862312E-01  2.1464810744E-01  6.4055853419E+00
                       1.6622296433E+01  5.9396272025E+00  8.5468124013E-01
                       7.9980872189E+00  5.9265421426E+00  4.8971324449E+00
                       5.7095782747E+00  6.2557450608E+00  1.0524549579E+01
             xred      2.6615300800E-01  4.8923099000E-01  9.0235002000E-02
                       7.3467099700E-01  4.8501300800E-01  4.2347601100E-01
                       7.3232001100E-01  5.2590698000E-01  9.1628497800E-01
                       2.6493099300E-01  5.1704102800E-01  5.9019297400E-01
                       7.6254099600E-01  3.2740000000E-03  7.0932999000E-02
                       2.3482699700E-01  9.8942101000E-01  4.1512098900E-01
                       2.3467600300E-01  1.7880000000E-02  9.1497200700E-01
                       7.6302200600E-01  9.4760000000E-03  5.7070303000E-01
                       9.9885398100E-01  3.0603001000E-02  2.4809400700E-01
                       9.9836099100E-01  9.7867399500E-01  7.4799698600E-01
                       5.0356799400E-01  5.2191501900E-01  2.6709199000E-01
                       5.0021499400E-01  4.8064601400E-01  7.6020199100E-01
                       9.9830299600E-01  5.3307598800E-01  2.4532699600E-01
                       1.8400000000E-03  4.7562399500E-01  7.4644297400E-01
                       4.9957299200E-01  2.5264001000E-02  2.5226301000E-01
                       4.9968901300E-01  9.8361498100E-01  7.5252199200E-01
                       1.2003300300E-01  2.3206500700E-01  7.8488000000E-02
                       8.7996602100E-01  2.3524899800E-01  4.1724801100E-01
                       8.7801098800E-01  7.7707999900E-01  9.1652298000E-01
                       1.1965200300E-01  7.7440601600E-01  5.7800602900E-01
                       6.2052798300E-01  7.3483097600E-01  8.9805000000E-02
                       3.8148900900E-01  7.3377901300E-01  4.2686098800E-01
                       3.8041600600E-01  2.7489799300E-01  9.2608499500E-01
                       6.1985200600E-01  2.5372999900E-01  5.9299302100E-01
                       2.0848399400E-01  3.0638998700E-01  3.0516600600E-01
                       7.9004001600E-01  3.1447699700E-01  1.9715400000E-01
                       7.8536397200E-01  6.9528597600E-01  6.9956600700E-01
                       2.0775400100E-01  6.9938999400E-01  8.0501800800E-01
                       7.1726298300E-01  8.0642598900E-01  2.9879599800E-01
                       2.9396098900E-01  8.0914199400E-01  1.9904500200E-01
                       2.9203200300E-01  1.9957999900E-01  7.0025301000E-01
                       7.2133398100E-01  2.2778500600E-01  8.0229699600E-01
                       1.4075000600E-01  3.2340601100E-01  8.7682902800E-01
                       8.6290699200E-01  3.2395499900E-01  6.2429302900E-01
                       8.5959297400E-01  6.9076103000E-01  1.2283500300E-01
                       1.3950100500E-01  6.8119400700E-01  3.7584498500E-01
                       6.3739198400E-01  8.2880097600E-01  8.8188397900E-01
                       3.6159101100E-01  8.2762402300E-01  6.2886399000E-01
                       3.6081001200E-01  1.8292999300E-01  1.2879300100E-01
                       6.3788902800E-01  1.9050200300E-01  3.7885201000E-01
                       1.0561000000E-02  2.9633399800E-01  5.2269001000E-02
                       9.8955601500E-01  2.9727000000E-01  4.4210299800E-01
                       9.8640900900E-01  7.0887100700E-01  9.3733900800E-01
                       9.6560000000E-03  7.1462500100E-01  5.5116099100E-01
                       5.0898498300E-01  7.9268902500E-01  5.2009001000E-02
                       4.9251699400E-01  7.9242301000E-01  4.5983499300E-01
                       4.9062800400E-01  2.1388700600E-01  9.5534002800E-01
                       5.0611901300E-01  2.3446799800E-01  5.4780900500E-01
                       1.2367899700E-01  9.8861199600E-01  7.0130996000E-02
                       8.7654501200E-01  9.9206101900E-01  4.2055898900E-01
                       8.7652999200E-01  2.0158000000E-02  9.1876000200E-01
                       1.2464200000E-01  1.7782001000E-02  5.6987500200E-01
                       6.2567102900E-01  4.9205398600E-01  7.6036997000E-02
                       3.7229201200E-01  4.9096998600E-01  4.3567499500E-01
                       3.7738901400E-01  5.1824200200E-01  9.3632000700E-01
            znucl       12.00000   28.00000    1.00000
 
================================================================================
 
 chkinp: Checking input parameters for consistency.
 DATA TYPE INFORMATION: 
 REAL:      Data type name: REAL(DP) 
            Kind value:      8
            Precision:      15
            Smallest nonnegligible quantity relative to 1:  0.22204460E-15
            Smallest positive number:                       0.22250739-307
            Largest representable number:                   0.17976931+309
 INTEGER:   Data type name: INTEGER(default) 
            Kind value: 4
            Bit size:   32
            Largest representable number: 2147483647
 LOGICAL:   Data type name: LOGICAL 
            Kind value: 4
 CHARACTER: Data type name: CHARACTER             Kind value: 1

  ==== OpenMP parallelism is OFF ====
 
  ==== Using MPI-2 specifications ==== 
  MPI-IO support is ON
  xmpi_tag_ub ................    536870911
  xmpi_bsize_ch ..............            1
  xmpi_bsize_int .............            4
  xmpi_bsize_sp ..............            4
  xmpi_bsize_dp ..............            8
  xmpi_bsize_spc .............            8
  xmpi_bsize_dpc .............           16
  xmpio_bsize_frm ............            4
  xmpi_address_kind ..........            8
  xmpi_offset_kind ...........            8
  MPI_WTICK ..................   1.000000000000000E-006
 
================================================================================
== DATASET  1 ==================================================================
-   nproc =    1
 
 
 getdim_nloc : deduce lmnmax  =  18, lnmax  =   6,
                      lmnmaxso=  18, lnmaxso=   6.
 Exchange-correlation functional for the present dataset will be:
  GGA: Perdew-Burke-Ernzerhof functional - ixc=11
 Citation for XC functional:
  J.P.Perdew, K.Burke, M.Ernzerhof, PRL 77, 3865 (1996)
 
 Unit cell volume ucvol=  3.6846463E+03 bohr^3
 Angles (23,13,12)=  9.00000000E+01  1.13328987E+02  9.00000000E+01 degrees
 
 getcut: wavevector=  0.0000  0.0000  0.0000  ngfft=  80  36  36
         ecut(hartree)=     10.000   => boxcut(ratio)=   2.06596
- pspini: atom type   1  psp file is Mg.psp8
- pspatm: opening atomic psp file    Mg.psp8
- Mg    ONCVPSP  r_core=  2.32  2.11
- 12.00000   2.00000    150628                znucl, zion, pspdat
    8   11    1    4       400   0.00000      pspcod,pspxc,lmax,lloc,mmax,r2well
    3.99000000000000    4.00000000000000    0.00000000000000   rchrg,fchrg,qchrg
     nproj     2     2
extension_switch     0
 pspatm: epsatm=   -7.49075864
         --- l  ekb(1:nproj) -->
             0    5.979236    0.624713
             1    4.001683    0.740074
 pspatm: atomic psp has been read  and splines computed
 
- pspini: atom type   2  psp file is Ni-sp.psp8
- pspatm: opening atomic psp file    Ni-sp.psp8
- Ni    ONCVPSP  r_core=  1.26  1.35  1.66
- 28.00000  18.00000    151103                znucl, zion, pspdat
    8   11    2    4       600   0.00000      pspcod,pspxc,lmax,lloc,mmax,r2well
    5.99000000000000    3.00000000000000    0.00000000000000   rchrg,fchrg,qchrg
     nproj     2     2     2
extension_switch     0
 pspatm: epsatm=   19.55809693
         --- l  ekb(1:nproj) -->
             0    6.065038   -0.229627
             1   -2.983278   -1.433038
             2   -7.377706   -2.705200
 pspatm: atomic psp has been read  and splines computed
 
- pspini: atom type   3  psp file is H.psp8
- pspatm: opening atomic psp file    H.psp8
- H     ONCVPSP  r_core=  1.01  0.71
-  1.00000   1.00000    151026                znucl, zion, pspdat
    8   11    1    1       300   0.00000      pspcod,pspxc,lmax,lloc,mmax,r2well
    2.99000000000000    0.00000000000000    0.00000000000000   rchrg,fchrg,qchrg
     nproj     2     0
extension_switch     0
 pspatm: epsatm=   -0.02267303
         --- l  ekb(1:nproj) -->
             0   78.287850   -9.277482
 pspatm: atomic psp has been read  and splines computed
 
   7.43332309E+03                                ecore*ucvol(ha*bohr**3)
 wfconv:   132 bands initialized randomly with npw=  2791, for ikpt=     1
 wfconv:   132 bands initialized randomly with npw=  2797, for ikpt=     2
 wfconv:   132 bands initialized randomly with npw=  5577, for ikpt=     3
 wfconv:   132 bands initialized randomly with npw=  5574, for ikpt=     4
 wfconv:   132 bands initialized randomly with npw=  2777, for ikpt=     5
 wfconv:   132 bands initialized randomly with npw=  2774, for ikpt=     6
 wfconv:   132 bands initialized randomly with npw=  5564, for ikpt=     7
 wfconv:   132 bands initialized randomly with npw=  5558, for ikpt=     8
 wfconv:   132 bands initialized randomly with npw=  5580, for ikpt=     9
 wfconv:   132 bands initialized randomly with npw=  5557, for ikpt=    10
 wfconv:   132 bands initialized randomly with npw=  5550, for ikpt=    11
 wfconv:   132 bands initialized randomly with npw=  5540, for ikpt=    12
 wfconv:   132 bands initialized randomly with npw=  5580, for ikpt=    13
 wfconv:   132 bands initialized randomly with npw=  5557, for ikpt=    14
 wfconv:   132 bands initialized randomly with npw=  2794, for ikpt=    15
 wfconv:   132 bands initialized randomly with npw=  2787, for ikpt=    16
 wfconv:   132 bands initialized randomly with npw=  5572, for ikpt=    17
 wfconv:   132 bands initialized randomly with npw=  5558, for ikpt=    18
 wfconv:   132 bands initialized randomly with npw=  2784, for ikpt=    19
 wfconv:   132 bands initialized randomly with npw=  2780, for ikpt=    20
 
_setup2: Arith. and geom. avg. npw (full set) are    5565.656    5565.640
 initro : for itypat=  1, take decay length=      1.6000,
 initro : indeed, coreel=     10.0000, nval=  2 and densty=  0.0000E+00.
 initro : for itypat=  2, take decay length=      0.6000,
 initro : indeed, coreel=     10.0000, nval= 18 and densty=  0.0000E+00.
 initro : for itypat=  3, take decay length=      0.6000,
 initro : indeed, coreel=      0.0000, nval=  1 and densty=  0.0000E+00.
 
================================================================================
 
 getcut: wavevector=  0.0000  0.0000  0.0000  ngfft=  80  36  36
         ecut(hartree)=     10.000   => boxcut(ratio)=   2.06596
 
 ITER STEP NUMBER     1
 vtorho : nnsclo_now=  2, note that nnsclo,dbl_nnsclo,istep=  0 0  1
 newocc : new Fermi energy is       0.256533 , with nelect=    207.000000
  Number of bissection calls =  52
 newocc : computed new occ. numbers for occopt=    4 , spin-unpolarized case.
 2.000 2.000 2.000 2.000 2.000 2.000 2.000 2.000 2.000 2.000 2.000 2.000
 2.000 2.000 2.000 2.000 2.000 2.000 2.000 2.000 2.000 2.000 2.000 2.000
 2.000 2.000 2.000 2.000 2.000 2.000 2.000 2.000 2.000 2.000 2.000 2.000
 2.000 2.000 2.000 2.000 2.000 2.000 2.000 2.000 2.000 2.000 2.000 2.000
 2.000 2.000 2.000 2.000 2.000 2.000 2.000 2.000 2.000 2.000 2.000 2.000
 2.000 2.000 2.000 2.000 2.000 2.000 2.000 2.000 2.000 2.000 2.000 2.000
 2.000 2.000 2.000 2.000 2.000 2.000 2.000 2.000 2.000 2.000 2.000 2.000
 2.000 2.000 2.000 2.000 2.000 2.000 2.000 2.000 2.000 2.000 2.000 2.000
 2.001 2.001 2.006 2.041 2.076 2.129 1.977 0.575 0.406 0.030 0.020 0.001
 0.005 0.003 0.002 0.001 0.001 0.000 0.000 0.000 0.000 0.000 0.000 0.000
 0.000 0.000 0.000 0.000 0.000 0.000 0.000 0.000 0.000 0.000 0.000 0.000
 2.000 2.000 2.000 2.000 2.000 2.000 2.000 2.000 2.000 2.000 2.000 2.000
 2.000 2.000 2.000 2.000 2.000 2.000 2.000 2.000 2.000 2.000 2.000 2.000
 2.000 2.000 2.000 2.000 2.000 2.000 2.000 2.000 2.000 2.000 2.000 2.000
 2.000 2.000 2.000 2.000 2.000 2.000 2.000 2.000 2.000 2.000 2.000 2.000
 2.000 2.000 2.000 2.000 2.000 2.000 2.000 2.000 2.000 2.000 2.000 2.000
 2.000 2.000 2.000 2.000 2.000 2.000 2.000 2.000 2.000 2.000 2.000 2.000
 2.000 2.000 2.000 2.000 2.000 2.000 2.000 2.000 2.000 2.000 2.000 2.000
 2.000 2.000 2.000 2.000 2.000 2.000 2.000 2.000 2.000 2.000 2.000 2.000
 2.000 2.001 2.002 2.012 2.059 2.138 2.025 1.129 0.919 0.191 0.003 0.002
 0.005 0.005 0.002 0.001 0.000 0.000 0.000 0.000 0.000 0.000 0.000 0.000
 0.000 0.000 0.000 0.000 0.000 0.000 0.000 0.000 0.000 0.000 0.000 0.000
 2.000 2.000 2.000 2.000 2.000 2.000 2.000 2.000 2.000 2.000 2.000 2.000
 2.000 2.000 2.000 2.000 2.000 2.000 2.000 2.000 2.000 2.000 2.000 2.000
 2.000 2.000 2.000 2.000 2.000 2.000 2.000 2.000 2.000 2.000 2.000 2.000
 2.000 2.000 2.000 2.000 2.000 2.000 2.000 2.000 2.000 2.000 2.000 2.000
 2.000 2.000 2.000 2.000 2.000 2.000 2.000 2.000 2.000 2.000 2.000 2.000
 2.000 2.000 2.000 2.000 2.000 2.000 2.000 2.000 2.000 2.000 2.000 2.000
 2.000 2.000 2.000 2.000 2.000 2.000 2.000 2.000 2.000 2.000 2.000 2.000
 2.000 2.000 2.000 2.000 2.000 2.000 2.000 2.000 2.000 2.000 2.000 2.000
 2.000 2.003 2.004 2.009 2.038 2.092 2.024 1.045 0.062 0.007 0.004 0.005
 0.003 0.002 0.001 0.000 0.000 0.000 0.000 0.000 0.000 0.000 0.000 0.000
 0.000 0.000 0.000 0.000 0.000 0.000 0.000 0.000 0.000 0.000 0.000 0.000
 2.000 2.000 2.000 2.000 2.000 2.000 2.000 2.000 2.000 2.000 2.000 2.000
 2.000 2.000 2.000 2.000 2.000 2.000 2.000 2.000 2.000 2.000 2.000 2.000
 2.000 2.000 2.000 2.000 2.000 2.000 2.000 2.000 2.000 2.000 2.000 2.000
 2.000 2.000 2.000 2.000 2.000 2.000 2.000 2.000 2.000 2.000 2.000 2.000
 2.000 2.000 2.000 2.000 2.000 2.000 2.000 2.000 2.000 2.000 2.000 2.000
 2.000 2.000 2.000 2.000 2.000 2.000 2.000 2.000 2.000 2.000 2.000 2.000
 2.000 2.000 2.000 2.000 2.000 2.000 2.000 2.000 2.000 2.000 2.000 2.000
 2.000 2.000 2.000 2.000 2.000 2.000 2.000 2.000 2.000 2.000 2.000 2.000
 2.001 2.006 2.021 2.043 2.107 2.142 1.820 1.115 0.346 0.003 0.000 0.005
 0.003 0.002 0.001 0.000 0.000 0.000 0.000 0.000 0.000 0.000 0.000 0.000
 0.000 0.000 0.000 0.000 0.000 0.000 0.000 0.000 0.000 0.000 0.000 0.000
 2.000 2.000 2.000 2.000 2.000 2.000 2.000 2.000 2.000 2.000 2.000 2.000
 2.000 2.000 2.000 2.000 2.000 2.000 2.000 2.000 2.000 2.000 2.000 2.000
 2.000 2.000 2.000 2.000 2.000 2.000 2.000 2.000 2.000 2.000 2.000 2.000
 2.000 2.000 2.000 2.000 2.000 2.000 2.000 2.000 2.000 2.000 2.000 2.000
 2.000 2.000 2.000 2.000 2.000 2.000 2.000 2.000 2.000 2.000 2.000 2.000
 2.000 2.000 2.000 2.000 2.000 2.000 2.000 2.000 2.000 2.000 2.000 2.000
 2.000 2.000 2.000 2.000 2.000 2.000 2.000 2.000 2.000 2.000 2.000 2.000
 2.000 2.000 2.000 2.000 2.000 2.000 2.000 2.000 2.000 2.000 2.000 2.000
 2.001 2.002 2.008 2.034 2.126 1.953 1.605 0.817 0.084 0.003 0.003 0.005
 0.003 0.000 0.000 0.000 0.000 0.000 0.000 0.000 0.000 0.000 0.000 0.000
 0.000 0.000 0.000 0.000 0.000 0.000 0.000 0.000 0.000 0.000 0.000 0.000
 2.000 2.000 2.000 2.000 2.000 2.000 2.000 2.000 2.000 2.000 2.000 2.000
 2.000 2.000 2.000 2.000 2.000 2.000 2.000 2.000 2.000 2.000 2.000 2.000
 2.000 2.000 2.000 2.000 2.000 2.000 2.000 2.000 2.000 2.000 2.000 2.000
 2.000 2.000 2.000 2.000 2.000 2.000 2.000 2.000 2.000 2.000 2.000 2.000
 2.000 2.000 2.000 2.000 2.000 2.000 2.000 2.000 2.000 2.000 2.000 2.000
 2.000 2.000 2.000 2.000 2.000 2.000 2.000 2.000 2.000 2.000 2.000 2.000
 2.000 2.000 2.000 2.000 2.000 2.000 2.000 2.000 2.000 2.000 2.000 2.000
 2.000 2.000 2.000 2.000 2.000 2.000 2.000 2.000 2.000 2.000 2.000 2.001
 2.004 2.007 2.019 2.036 2.123 2.140 1.929 0.984 0.158 0.023 0.003 0.003
 0.002 0.001 0.001 0.000 0.000 0.000 0.000 0.000 0.000 0.000 0.000 0.000
 0.000 0.000 0.000 0.000 0.000 0.000 0.000 0.000 0.000 0.000 0.000 0.000
 2.000 2.000 2.000 2.000 2.000 2.000 2.000 2.000 2.000 2.000 2.000 2.000
 2.000 2.000 2.000 2.000 2.000 2.000 2.000 2.000 2.000 2.000 2.000 2.000
 2.000 2.000 2.000 2.000 2.000 2.000 2.000 2.000 2.000 2.000 2.000 2.000
 2.000 2.000 2.000 2.000 2.000 2.000 2.000 2.000 2.000 2.000 2.000 2.000
 2.000 2.000 2.000 2.000 2.000 2.000 2.000 2.000 2.000 2.000 2.000 2.000
 2.000 2.000 2.000 2.000 2.000 2.000 2.000 2.000 2.000 2.000 2.000 2.000
 2.000 2.000 2.000 2.000 2.000 2.000 2.000 2.000 2.000 2.000 2.000 2.000
 2.000 2.000 2.000 2.000 2.000 2.000 2.000 2.000 2.000 2.000 2.000 2.000
 2.000 2.001 2.006 2.023 2.107 2.126 1.663 0.872 0.319 0.016 0.000 0.003
 0.004 0.001 0.000 0.000 0.000 0.000 0.000 0.000 0.000 0.000 0.000 0.000
 0.000 0.000 0.000 0.000 0.000 0.000 0.000 0.000 0.000 0.000 0.000 0.000
 2.000 2.000 2.000 2.000 2.000 2.000 2.000 2.000 2.000 2.000 2.000 2.000
 2.000 2.000 2.000 2.000 2.000 2.000 2.000 2.000 2.000 2.000 2.000 2.000
 2.000 2.000 2.000 2.000 2.000 2.000 2.000 2.000 2.000 2.000 2.000 2.000
 2.000 2.000 2.000 2.000 2.000 2.000 2.000 2.000 2.000 2.000 2.000 2.000
 2.000 2.000 2.000 2.000 2.000 2.000 2.000 2.000 2.000 2.000 2.000 2.000
 2.000 2.000 2.000 2.000 2.000 2.000 2.000 2.000 2.000 2.000 2.000 2.000
 2.000 2.000 2.000 2.000 2.000 2.000 2.000 2.000 2.000 2.000 2.000 2.000
 2.000 2.000 2.000 2.000 2.000 2.000 2.000 2.000 2.000 2.000 2.000 2.000
 2.001 2.002 2.003 2.054 2.125 2.130 1.519 1.086 0.277 0.006 0.000 0.005
 0.005 0.004 0.002 0.000 0.000 0.000 0.000 0.000 0.000 0.000 0.000 0.000
 0.000 0.000 0.000 0.000 0.000 0.000 0.000 0.000 0.000 0.000 0.000 0.000
 2.000 2.000 2.000 2.000 2.000 2.000 2.000 2.000 2.000 2.000 2.000 2.000
 2.000 2.000 2.000 2.000 2.000 2.000 2.000 2.000 2.000 2.000 2.000 2.000
 2.000 2.000 2.000 2.000 2.000 2.000 2.000 2.000 2.000 2.000 2.000 2.000
 2.000 2.000 2.000 2.000 2.000 2.000 2.000 2.000 2.000 2.000 2.000 2.000
 2.000 2.000 2.000 2.000 2.000 2.000 2.000 2.000 2.000 2.000 2.000 2.000
 2.000 2.000 2.000 2.000 2.000 2.000 2.000 2.000 2.000 2.000 2.000 2.000
 2.000 2.000 2.000 2.000 2.000 2.000 2.000 2.000 2.000 2.000 2.000 2.000
 2.000 2.000 2.000 2.000 2.000 2.000 2.000 2.000 2.000 2.000 2.000 2.000
 2.001 2.007 2.017 2.050 2.104 2.135 1.919 1.086 0.187 0.016 0.004 0.005
 0.003 0.002 0.001 0.000 0.000 0.000 0.000 0.000 0.000 0.000 0.000 0.000
 0.000 0.000 0.000 0.000 0.000 0.000 0.000 0.000 0.000 0.000 0.000 0.000
 2.000 2.000 2.000 2.000 2.000 2.000 2.000 2.000 2.000 2.000 2.000 2.000
 2.000 2.000 2.000 2.000 2.000 2.000 2.000 2.000 2.000 2.000 2.000 2.000
 2.000 2.000 2.000 2.000 2.000 2.000 2.000 2.000 2.000 2.000 2.000 2.000
 2.000 2.000 2.000 2.000 2.000 2.000 2.000 2.000 2.000 2.000 2.000 2.000
 2.000 2.000 2.000 2.000 2.000 2.000 2.000 2.000 2.000 2.000 2.000 2.000
 2.000 2.000 2.000 2.000 2.000 2.000 2.000 2.000 2.000 2.000 2.000 2.000
 2.000 2.000 2.000 2.000 2.000 2.000 2.000 2.000 2.000 2.000 2.000 2.000
 2.000 2.000 2.000 2.000 2.000 2.000 2.000 2.000 2.000 2.000 2.000 2.001
 2.002 2.005 2.010 2.044 2.095 2.141 1.985 1.132 0.205 0.026 0.003 0.005
 0.005 0.003 0.001 0.000 0.000 0.000 0.000 0.000 0.000 0.000 0.000 0.000
 0.000 0.000 0.000 0.000 0.000 0.000 0.000 0.000 0.000 0.000 0.000 0.000
 2.000 2.000 2.000 2.000 2.000 2.000 2.000 2.000 2.000 2.000 2.000 2.000
 2.000 2.000 2.000 2.000 2.000 2.000 2.000 2.000 2.000 2.000 2.000 2.000
 2.000 2.000 2.000 2.000 2.000 2.000 2.000 2.000 2.000 2.000 2.000 2.000
 2.000 2.000 2.000 2.000 2.000 2.000 2.000 2.000 2.000 2.000 2.000 2.000
 2.000 2.000 2.000 2.000 2.000 2.000 2.000 2.000 2.000 2.000 2.000 2.000
 2.000 2.000 2.000 2.000 2.000 2.000 2.000 2.000 2.000 2.000 2.000 2.000
 2.000 2.000 2.000 2.000 2.000 2.000 2.000 2.000 2.000 2.000 2.000 2.000
 2.000 2.000 2.000 2.000 2.000 2.000 2.000 2.000 2.000 2.000 2.000 2.000
 2.001 2.010 2.034 2.110 2.122 2.026 1.462 0.230 0.088 0.006 0.001 0.005
 0.004 0.003 0.001 0.000 0.000 0.000 0.000 0.000 0.000 0.000 0.000 0.000
 0.000 0.000 0.000 0.000 0.000 0.000 0.000 0.000 0.000 0.000 0.000 0.000
 2.000 2.000 2.000 2.000 2.000 2.000 2.000 2.000 2.000 2.000 2.000 2.000
 2.000 2.000 2.000 2.000 2.000 2.000 2.000 2.000 2.000 2.000 2.000 2.000
 2.000 2.000 2.000 2.000 2.000 2.000 2.000 2.000 2.000 2.000 2.000 2.000
 2.000 2.000 2.000 2.000 2.000 2.000 2.000 2.000 2.000 2.000 2.000 2.000
 2.000 2.000 2.000 2.000 2.000 2.000 2.000 2.000 2.000 2.000 2.000 2.000
 2.000 2.000 2.000 2.000 2.000 2.000 2.000 2.000 2.000 2.000 2.000 2.000
 2.000 2.000 2.000 2.000 2.000 2.000 2.000 2.000 2.000 2.000 2.000 2.000
 2.000 2.000 2.000 2.000 2.000 2.000 2.000 2.000 2.000 2.000 2.000 2.001
 2.001 2.006 2.039 2.072 2.142 2.090 1.632 0.166 0.036 0.001 0.005 0.005
 0.002 0.001 0.000 0.000 0.000 0.000 0.000 0.000 0.000 0.000 0.000 0.000
 0.000 0.000 0.000 0.000 0.000 0.000 0.000 0.000 0.000 0.000 0.000 0.000
 2.000 2.000 2.000 2.000 2.000 2.000 2.000 2.000 2.000 2.000 2.000 2.000
 2.000 2.000 2.000 2.000 2.000 2.000 2.000 2.000 2.000 2.000 2.000 2.000
 2.000 2.000 2.000 2.000 2.000 2.000 2.000 2.000 2.000 2.000 2.000 2.000
 2.000 2.000 2.000 2.000 2.000 2.000 2.000 2.000 2.000 2.000 2.000 2.000
 2.000 2.000 2.000 2.000 2.000 2.000 2.000 2.000 2.000 2.000 2.000 2.000
 2.000 2.000 2.000 2.000 2.000 2.000 2.000 2.000 2.000 2.000 2.000 2.000
 2.000 2.000 2.000 2.000 2.000 2.000 2.000 2.000 2.000 2.000 2.000 2.000
 2.000 2.000 2.000 2.000 2.000 2.000 2.000 2.000 2.000 2.000 2.000 2.001
 2.005 2.011 2.031 2.053 2.137 2.112 1.333 0.905 0.203 0.011 0.000 0.005
 0.005 0.003 0.000 0.000 0.000 0.000 0.000 0.000 0.000 0.000 0.000 0.000
 0.000 0.000 0.000 0.000 0.000 0.000 0.000 0.000 0.000 0.000 0.000 0.000
 2.000 2.000 2.000 2.000 2.000 2.000 2.000 2.000 2.000 2.000 2.000 2.000
 2.000 2.000 2.000 2.000 2.000 2.000 2.000 2.000 2.000 2.000 2.000 2.000
 2.000 2.000 2.000 2.000 2.000 2.000 2.000 2.000 2.000 2.000 2.000 2.000
 2.000 2.000 2.000 2.000 2.000 2.000 2.000 2.000 2.000 2.000 2.000 2.000
 2.000 2.000 2.000 2.000 2.000 2.000 2.000 2.000 2.000 2.000 2.000 2.000
 2.000 2.000 2.000 2.000 2.000 2.000 2.000 2.000 2.000 2.000 2.000 2.000
 2.000 2.000 2.000 2.000 2.000 2.000 2.000 2.000 2.000 2.000 2.000 2.000
 2.000 2.000 2.000 2.000 2.000 2.000 2.000 2.000 2.000 2.000 2.000 2.000
 2.000 2.003 2.023 2.044 2.134 2.142 1.894 0.757 0.178 0.001 0.003 0.005
 0.004 0.003 0.001 0.000 0.000 0.000 0.000 0.000 0.000 0.000 0.000 0.000
[...]
 2.000 2.000 2.000 2.000 2.000 2.000 2.000 2.000 2.000 2.000 2.000 2.000
 2.001 2.001 2.001 2.001 2.005 2.006 2.013 2.014 2.026 2.034 2.051 2.084
 2.098 2.103 2.125 2.100 2.035 1.943 1.886 0.766 0.005 0.004 0.002 0.002
 0.001 0.001 0.000 0.000 0.000 0.000 0.000 0.000 0.000 0.000 0.000 0.000
 0.000 0.000 0.000 0.000 0.000 0.000 0.000 0.000 0.000 0.000 0.000 0.000
 2.000 2.000 2.000 2.000 2.000 2.000 2.000 2.000 2.000 2.000 2.000 2.000
 2.000 2.000 2.000 2.000 2.000 2.000 2.000 2.000 2.000 2.000 2.000 2.000
 2.000 2.000 2.000 2.000 2.000 2.000 2.000 2.000 2.000 2.000 2.000 2.000
 2.000 2.000 2.000 2.000 2.000 2.000 2.000 2.000 2.000 2.000 2.000 2.000
 2.000 2.000 2.000 2.000 2.000 2.000 2.000 2.000 2.000 2.000 2.000 2.000
 2.000 2.000 2.000 2.000 2.000 2.000 2.000 2.000 2.000 2.000 2.000 2.000
 2.000 2.000 2.000 2.000 2.000 2.000 2.000 2.000 2.000 2.000 2.000 2.000
 2.001 2.001 2.002 2.002 2.003 2.003 2.005 2.008 2.083 2.088 2.092 2.104
 2.112 2.131 2.141 2.128 2.095 2.081 1.961 1.198 0.005 0.005 0.001 0.000
 0.000 0.000 0.000 0.000 0.000 0.000 0.000 0.000 0.000 0.000 0.000 0.000
 0.000 0.000 0.000 0.000 0.000 0.000 0.000 0.000 0.000 0.000 0.000 0.000
 2.000 2.000 2.000 2.000 2.000 2.000 2.000 2.000 2.000 2.000 2.000 2.000
 2.000 2.000 2.000 2.000 2.000 2.000 2.000 2.000 2.000 2.000 2.000 2.000
 2.000 2.000 2.000 2.000 2.000 2.000 2.000 2.000 2.000 2.000 2.000 2.000
 2.000 2.000 2.000 2.000 2.000 2.000 2.000 2.000 2.000 2.000 2.000 2.000
 2.000 2.000 2.000 2.000 2.000 2.000 2.000 2.000 2.000 2.000 2.000 2.000
 2.000 2.000 2.000 2.000 2.000 2.000 2.000 2.000 2.000 2.000 2.000 2.000
 2.000 2.000 2.000 2.000 2.000 2.000 2.000 2.000 2.000 2.000 2.000 2.000
 2.000 2.001 2.001 2.002 2.003 2.017 2.021 2.024 2.035 2.050 2.055 2.071
 2.080 2.096 2.124 2.139 2.032 1.906 1.595 0.600 0.001 0.002 0.005 0.005
 0.003 0.000 0.000 0.000 0.000 0.000 0.000 0.000 0.000 0.000 0.000 0.000
 0.000 0.000 0.000 0.000 0.000 0.000 0.000 0.000 0.000 0.000 0.000 0.000
 2.000 2.000 2.000 2.000 2.000 2.000 2.000 2.000 2.000 2.000 2.000 2.000
 2.000 2.000 2.000 2.000 2.000 2.000 2.000 2.000 2.000 2.000 2.000 2.000
 2.000 2.000 2.000 2.000 2.000 2.000 2.000 2.000 2.000 2.000 2.000 2.000
 2.000 2.000 2.000 2.000 2.000 2.000 2.000 2.000 2.000 2.000 2.000 2.000
 2.000 2.000 2.000 2.000 2.000 2.000 2.000 2.000 2.000 2.000 2.000 2.000
 2.000 2.000 2.000 2.000 2.000 2.000 2.000 2.000 2.000 2.000 2.000 2.000
 2.000 2.000 2.000 2.000 2.000 2.000 2.000 2.000 2.000 2.000 2.000 2.000
 2.001 2.001 2.001 2.002 2.004 2.017 2.024 2.027 2.034 2.038 2.059 2.073
 2.089 2.116 2.130 2.138 2.112 2.015 1.309 0.623 0.002 0.003 0.005 0.002
 0.001 0.000 0.000 0.000 0.000 0.000 0.000 0.000 0.000 0.000 0.000 0.000
 0.000 0.000 0.000 0.000 0.000 0.000 0.000 0.000 0.000 0.000 0.000 0.000
 2.000 2.000 2.000 2.000 2.000 2.000 2.000 2.000 2.000 2.000 2.000 2.000
 2.000 2.000 2.000 2.000 2.000 2.000 2.000 2.000 2.000 2.000 2.000 2.000
 2.000 2.000 2.000 2.000 2.000 2.000 2.000 2.000 2.000 2.000 2.000 2.000
 2.000 2.000 2.000 2.000 2.000 2.000 2.000 2.000 2.000 2.000 2.000 2.000
 2.000 2.000 2.000 2.000 2.000 2.000 2.000 2.000 2.000 2.000 2.000 2.000
 2.000 2.000 2.000 2.000 2.000 2.000 2.000 2.000 2.000 2.000 2.000 2.000
 2.000 2.000 2.000 2.000 2.000 2.000 2.000 2.000 2.000 2.000 2.000 2.000
 2.000 2.000 2.001 2.002 2.003 2.005 2.015 2.026 2.032 2.063 2.080 2.097
 2.109 2.131 2.135 2.126 2.107 2.036 1.522 0.224 0.004 0.005 0.004 0.003
 0.002 0.001 0.000 0.000 0.000 0.000 0.000 0.000 0.000 0.000 0.000 0.000
 0.000 0.000 0.000 0.000 0.000 0.000 0.000 0.000 0.000 0.000 0.000 0.000
 2.000 2.000 2.000 2.000 2.000 2.000 2.000 2.000 2.000 2.000 2.000 2.000
 2.000 2.000 2.000 2.000 2.000 2.000 2.000 2.000 2.000 2.000 2.000 2.000
 2.000 2.000 2.000 2.000 2.000 2.000 2.000 2.000 2.000 2.000 2.000 2.000
 2.000 2.000 2.000 2.000 2.000 2.000 2.000 2.000 2.000 2.000 2.000 2.000
 2.000 2.000 2.000 2.000 2.000 2.000 2.000 2.000 2.000 2.000 2.000 2.000
 2.000 2.000 2.000 2.000 2.000 2.000 2.000 2.000 2.000 2.000 2.000 2.000
 2.000 2.000 2.000 2.000 2.000 2.000 2.000 2.000 2.000 2.000 2.000 2.000
 2.000 2.001 2.001 2.001 2.004 2.009 2.016 2.037 2.057 2.064 2.092 2.106
 2.111 2.130 2.141 2.137 2.087 1.802 1.460 0.212 0.004 0.005 0.003 0.002
 0.001 0.001 0.000 0.000 0.000 0.000 0.000 0.000 0.000 0.000 0.000 0.000
 0.000 0.000 0.000 0.000 0.000 0.000 0.000 0.000 0.000 0.000 0.000 0.000
 2.000 2.000 2.000 2.000 2.000 2.000 2.000 2.000 2.000 2.000 2.000 2.000
 2.000 2.000 2.000 2.000 2.000 2.000 2.000 2.000 2.000 2.000 2.000 2.000
 2.000 2.000 2.000 2.000 2.000 2.000 2.000 2.000 2.000 2.000 2.000 2.000
 2.000 2.000 2.000 2.000 2.000 2.000 2.000 2.000 2.000 2.000 2.000 2.000
 2.000 2.000 2.000 2.000 2.000 2.000 2.000 2.000 2.000 2.000 2.000 2.000
 2.000 2.000 2.000 2.000 2.000 2.000 2.000 2.000 2.000 2.000 2.000 2.000
 2.000 2.000 2.000 2.000 2.000 2.000 2.000 2.000 2.000 2.000 2.000 2.000
 2.000 2.000 2.001 2.001 2.002 2.003 2.027 2.030 2.094 2.104 2.116 2.134
 2.136 2.141 2.133 2.104 2.042 1.883 1.744 0.495 0.004 0.004 0.001 0.001
 0.001 0.000 0.000 0.000 0.000 0.000 0.000 0.000 0.000 0.000 0.000 0.000
 0.000 0.000 0.000 0.000 0.000 0.000 0.000 0.000 0.000 0.000 0.000 0.000
 2.000 2.000 2.000 2.000 2.000 2.000 2.000 2.000 2.000 2.000 2.000 2.000
 2.000 2.000 2.000 2.000 2.000 2.000 2.000 2.000 2.000 2.000 2.000 2.000
 2.000 2.000 2.000 2.000 2.000 2.000 2.000 2.000 2.000 2.000 2.000 2.000
 2.000 2.000 2.000 2.000 2.000 2.000 2.000 2.000 2.000 2.000 2.000 2.000
 2.000 2.000 2.000 2.000 2.000 2.000 2.000 2.000 2.000 2.000 2.000 2.000
 2.000 2.000 2.000 2.000 2.000 2.000 2.000 2.000 2.000 2.000 2.000 2.000
 2.000 2.000 2.000 2.000 2.000 2.000 2.000 2.000 2.000 2.000 2.000 2.000
 2.000 2.001 2.001 2.002 2.003 2.004 2.020 2.025 2.089 2.101 2.128 2.138
 2.132 2.123 2.110 2.035 2.009 1.847 1.646 0.444 0.005 0.004 0.002 0.002
 0.000 0.000 0.000 0.000 0.000 0.000 0.000 0.000 0.000 0.000 0.000 0.000
 0.000 0.000 0.000 0.000 0.000 0.000 0.000 0.000 0.000 0.000 0.000 0.000
 2.000 2.000 2.000 2.000 2.000 2.000 2.000 2.000 2.000 2.000 2.000 2.000
 2.000 2.000 2.000 2.000 2.000 2.000 2.000 2.000 2.000 2.000 2.000 2.000
 2.000 2.000 2.000 2.000 2.000 2.000 2.000 2.000 2.000 2.000 2.000 2.000
 2.000 2.000 2.000 2.000 2.000 2.000 2.000 2.000 2.000 2.000 2.000 2.000
 2.000 2.000 2.000 2.000 2.000 2.000 2.000 2.000 2.000 2.000 2.000 2.000
 2.000 2.000 2.000 2.000 2.000 2.000 2.000 2.000 2.000 2.000 2.000 2.000
 2.000 2.000 2.000 2.000 2.000 2.000 2.000 2.000 2.000 2.000 2.000 2.000
 2.000 2.000 2.001 2.002 2.003 2.006 2.015 2.025 2.040 2.070 2.084 2.102
 2.114 2.132 2.141 2.132 2.121 2.019 1.488 0.646 0.004 0.005 0.003 0.003
 0.002 0.001 0.000 0.000 0.000 0.000 0.000 0.000 0.000 0.000 0.000 0.000
 0.000 0.000 0.000 0.000 0.000 0.000 0.000 0.000 0.000 0.000 0.000 0.000
 2.000 2.000 2.000 2.000 2.000 2.000 2.000 2.000 2.000 2.000 2.000 2.000
 2.000 2.000 2.000 2.000 2.000 2.000 2.000 2.000 2.000 2.000 2.000 2.000
 2.000 2.000 2.000 2.000 2.000 2.000 2.000 2.000 2.000 2.000 2.000 2.000
 2.000 2.000 2.000 2.000 2.000 2.000 2.000 2.000 2.000 2.000 2.000 2.000
 2.000 2.000 2.000 2.000 2.000 2.000 2.000 2.000 2.000 2.000 2.000 2.000
 2.000 2.000 2.000 2.000 2.000 2.000 2.000 2.000 2.000 2.000 2.000 2.000
 2.000 2.000 2.000 2.000 2.000 2.000 2.000 2.000 2.000 2.000 2.000 2.000
 2.000 2.001 2.001 2.001 2.005 2.010 2.014 2.039 2.058 2.066 2.093 2.102
 2.125 2.138 2.140 2.137 2.109 1.671 1.512 0.657 0.004 0.005 0.003 0.002
 0.001 0.000 0.000 0.000 0.000 0.000 0.000 0.000 0.000 0.000 0.000 0.000
 0.000 0.000 0.000 0.000 0.000 0.000 0.000 0.000 0.000 0.000 0.000 0.000
 2.000 2.000 2.000 2.000 2.000 2.000 2.000 2.000 2.000 2.000 2.000 2.000
 2.000 2.000 2.000 2.000 2.000 2.000 2.000 2.000 2.000 2.000 2.000 2.000
 2.000 2.000 2.000 2.000 2.000 2.000 2.000 2.000 2.000 2.000 2.000 2.000
 2.000 2.000 2.000 2.000 2.000 2.000 2.000 2.000 2.000 2.000 2.000 2.000
 2.000 2.000 2.000 2.000 2.000 2.000 2.000 2.000 2.000 2.000 2.000 2.000
 2.000 2.000 2.000 2.000 2.000 2.000 2.000 2.000 2.000 2.000 2.000 2.000
 2.000 2.000 2.000 2.000 2.000 2.000 2.000 2.000 2.000 2.000 2.000 2.000
 2.000 2.001 2.001 2.001 2.005 2.005 2.007 2.009 2.019 2.020 2.092 2.096
 2.100 2.130 2.139 2.142 2.139 2.128 2.114 1.353 0.005 0.005 0.003 0.002
 0.000 0.000 0.000 0.000 0.000 0.000 0.000 0.000 0.000 0.000 0.000 0.000
 0.000 0.000 0.000 0.000 0.000 0.000 0.000 0.000 0.000 0.000 0.000 0.000
 2.000 2.000 2.000 2.000 2.000 2.000 2.000 2.000 2.000 2.000 2.000 2.000
 2.000 2.000 2.000 2.000 2.000 2.000 2.000 2.000 2.000 2.000 2.000 2.000
 2.000 2.000 2.000 2.000 2.000 2.000 2.000 2.000 2.000 2.000 2.000 2.000
 2.000 2.000 2.000 2.000 2.000 2.000 2.000 2.000 2.000 2.000 2.000 2.000
 2.000 2.000 2.000 2.000 2.000 2.000 2.000 2.000 2.000 2.000 2.000 2.000
 2.000 2.000 2.000 2.000 2.000 2.000 2.000 2.000 2.000 2.000 2.000 2.000
 2.000 2.000 2.000 2.000 2.000 2.000 2.000 2.000 2.000 2.000 2.000 2.000
 2.000 2.001 2.001 2.001 2.003 2.004 2.031 2.033 2.037 2.042 2.057 2.077
 2.089 2.116 2.134 2.141 2.120 2.055 1.932 1.123 0.005 0.005 0.003 0.003
 0.000 0.000 0.000 0.000 0.000 0.000 0.000 0.000 0.000 0.000 0.000 0.000
 0.000 0.000 0.000 0.000 0.000 0.000 0.000 0.000 0.000 0.000 0.000 0.000
 2.000 2.000 2.000 2.000 2.000 2.000 2.000 2.000 2.000 2.000 2.000 2.000
 2.000 2.000 2.000 2.000 2.000 2.000 2.000 2.000 2.000 2.000 2.000 2.000
 2.000 2.000 2.000 2.000 2.000 2.000 2.000 2.000 2.000 2.000 2.000 2.000
 2.000 2.000 2.000 2.000 2.000 2.000 2.000 2.000 2.000 2.000 2.000 2.000
 2.000 2.000 2.000 2.000 2.000 2.000 2.000 2.000 2.000 2.000 2.000 2.000
 2.000 2.000 2.000 2.000 2.000 2.000 2.000 2.000 2.000 2.000 2.000 2.000
 2.000 2.000 2.000 2.000 2.000 2.000 2.000 2.000 2.000 2.000 2.000 2.000
 2.000 2.000 2.000 2.001 2.009 2.010 2.021 2.024 2.097 2.108 2.125 2.135
 2.139 2.140 2.141 2.137 2.062 2.002 1.936 0.495 0.005 0.004 0.003 0.003
 0.000 0.000 0.000 0.000 0.000 0.000 0.000 0.000 0.000 0.000 0.000 0.000
 0.000 0.000 0.000 0.000 0.000 0.000 0.000 0.000 0.000 0.000 0.000 0.000
 2.000 2.000 2.000 2.000 2.000 2.000 2.000 2.000 2.000 2.000 2.000 2.000
 2.000 2.000 2.000 2.000 2.000 2.000 2.000 2.000 2.000 2.000 2.000 2.000
 2.000 2.000 2.000 2.000 2.000 2.000 2.000 2.000 2.000 2.000 2.000 2.000
 2.000 2.000 2.000 2.000 2.000 2.000 2.000 2.000 2.000 2.000 2.000 2.000
 2.000 2.000 2.000 2.000 2.000 2.000 2.000 2.000 2.000 2.000 2.000 2.000
 2.000 2.000 2.000 2.000 2.000 2.000 2.000 2.000 2.000 2.000 2.000 2.000
 2.000 2.000 2.000 2.000 2.000 2.000 2.000 2.000 2.000 2.000 2.000 2.000
 2.000 2.000 2.001 2.001 2.002 2.003 2.048 2.062 2.098 2.107 2.136 2.141
 2.142 2.141 2.139 2.101 2.002 1.970 1.780 0.505 0.004 0.004 0.003 0.002
 0.000 0.000 0.000 0.000 0.000 0.000 0.000 0.000 0.000 0.000 0.000 0.000
 0.000 0.000 0.000 0.000 0.000 0.000 0.000 0.000 0.000 0.000 0.000 0.000
 2.000 2.000 2.000 2.000 2.000 2.000 2.000 2.000 2.000 2.000 2.000 2.000
 2.000 2.000 2.000 2.000 2.000 2.000 2.000 2.000 2.000 2.000 2.000 2.000
 2.000 2.000 2.000 2.000 2.000 2.000 2.000 2.000 2.000 2.000 2.000 2.000
 2.000 2.000 2.000 2.000 2.000 2.000 2.000 2.000 2.000 2.000 2.000 2.000
 2.000 2.000 2.000 2.000 2.000 2.000 2.000 2.000 2.000 2.000 2.000 2.000
 2.000 2.000 2.000 2.000 2.000 2.000 2.000 2.000 2.000 2.000 2.000 2.000
 2.000 2.000 2.000 2.000 2.000 2.000 2.000 2.000 2.000 2.000 2.000 2.000
 2.000 2.000 2.000 2.001 2.012 2.014 2.017 2.018 2.100 2.105 2.123 2.136
 2.028 2.007 1.962 1.879 1.654 1.623 1.603 0.080 0.002 0.002 0.002 0.002
 0.000 0.000 0.000 0.000 0.000 0.000 0.000 0.000 0.000 0.000 0.000 0.000
 0.000 0.000 0.000 0.000 0.000 0.000 0.000 0.000 0.000 0.000 0.000 0.000
 2.000 2.000 2.000 2.000 2.000 2.000 2.000 2.000 2.000 2.000 2.000 2.000
 2.000 2.000 2.000 2.000 2.000 2.000 2.000 2.000 2.000 2.000 2.000 2.000
 2.000 2.000 2.000 2.000 2.000 2.000 2.000 2.000 2.000 2.000 2.000 2.000
 2.000 2.000 2.000 2.000 2.000 2.000 2.000 2.000 2.000 2.000 2.000 2.000
 2.000 2.000 2.000 2.000 2.000 2.000 2.000 2.000 2.000 2.000 2.000 2.000
 2.000 2.000 2.000 2.000 2.000 2.000 2.000 2.000 2.000 2.000 2.000 2.000
 2.000 2.000 2.000 2.000 2.000 2.000 2.000 2.000 2.000 2.000 2.000 2.000
 2.000 2.000 2.000 2.001 2.001 2.001 2.040 2.042 2.129 2.132 2.086 2.031
 2.015 1.993 1.908 1.866 1.764 1.568 1.397 0.043 0.005 0.005 0.005 0.004
 0.001 0.000 0.000 0.000 0.000 0.000 0.000 0.000 0.000 0.000 0.000 0.000
 0.000 0.000 0.000 0.000 0.000 0.000 0.000 0.000 0.000 0.000 0.000 0.000
mkrho: echo density (plane-wave part only)
 Total charge density [el/Bohr^3]
,     Maximum=    2.0099E+00  at reduced coord.    0.6000    0.2500    0.5833
,     Minimum=    8.7487E-04  at reduced coord.    0.0000    0.0278    0.2500
,  Integrated=    2.0700E+02
 Total charge density [el/Bohr^3]
,     Maximum=    2.0099E+00  at reduced coord.    0.6000    0.2500    0.5833
,     Minimum=    8.7487E-04  at reduced coord.    0.0000    0.0278    0.2500
,  Integrated=    2.0700E+02
 ETOT 50  -1255.8343558639     1.592E-12 2.911E-06 1.857E-11
 scprqt: <Vxc>= -3.4723751E-01 hartree
 
 Pulay update with  7 previous iterations:
 mixing of old trial potential : alpha(m:m-4)=  0.251E-01   1.20      -2.23       1.57      -1.08
 
 Cartesian components of stress tensor (hartree/bohr^3)
  sigma(1 1)=  3.66064931E-02  sigma(3 2)= -6.31668041E-06
  sigma(2 2)=  3.68183790E-02  sigma(3 1)=  1.31046174E-04
  sigma(3 3)=  3.68513032E-02  sigma(2 1)=  5.31369597E-06
 

--- !ScfConvergenceWarning
message: |
    nstep 50 was not enough SCF cycles to converge.
...
 
 scprqt:  WARNING -
  nstep=   50 was not enough SCF cycles to converge;
  maximum residual each band. tolwfr=   1.000E-08
  iband, isppol, individual band residuals (max over all k-points):
     1     1  4.349E-10
     2     1  6.710E-10
     3     1  1.536E-10
     4     1  2.466E-10
     5     1  3.055E-10
     6     1  1.092E-10
     7     1  1.341E-10
     8     1  1.588E-10
     9     1  5.820E-10
    10     1  7.194E-10
    11     1  6.116E-10
    12     1  5.332E-10
    13     1  5.436E-10
    14     1  9.312E-10
    15     1  5.188E-10
    16     1  5.759E-10
    17     1  6.856E-10
    18     1  4.256E-10
    19     1  7.545E-10
    20     1  5.905E-10
    21     1  4.448E-10
    22     1  1.053E-09
    23     1  9.826E-10
    24     1  7.642E-10
    25     1  9.249E-10
    26     1  1.210E-09
    27     1  1.080E-09
    28     1  1.571E-09
    29     1  8.537E-10
    30     1  2.062E-09
    31     1  1.817E-09
    32     1  2.404E-09
    33     1  4.100E-09
    34     1  2.990E-09
    35     1  3.778E-09
    36     1  3.549E-09
    37     1  3.942E-09
    38     1  3.174E-09
    39     1  3.433E-09
    40     1  4.002E-09
    41     1  3.501E-09
    42     1  3.040E-09
    43     1  3.129E-09
    44     1  2.926E-09
    45     1  2.825E-09
    46     1  2.978E-09
    47     1  3.025E-09
    48     1  3.223E-09
    49     1  3.063E-09
    50     1  2.508E-09
    51     1  2.763E-09
    52     1  3.177E-09
    53     1  2.906E-09
    54     1  2.914E-09
    55     1  2.937E-09
    56     1  2.952E-09
    57     1  3.018E-09
    58     1  2.805E-09
    59     1  2.766E-09
    60     1  2.767E-09
    61     1  2.838E-09
    62     1  3.025E-09
    63     1  3.133E-09
    64     1  8.252E-10
    65     1  2.727E-09
    66     1  2.785E-09
    67     1  3.061E-09
    68     1  2.255E-09
    69     1  1.940E-09
    70     1  3.068E-09
    71     1  2.628E-09
    72     1  2.674E-09
    73     1  3.066E-09
    74     1  2.382E-09
    75     1  2.661E-09
    76     1  2.881E-09
    77     1  2.753E-09
    78     1  3.236E-09
    79     1  3.789E-09
    80     1  2.694E-09
    81     1  2.978E-09
    82     1  3.487E-09
    83     1  3.517E-09
    84     1  2.679E-09
    85     1  3.158E-09
    86     1  3.209E-09
    87     1  3.401E-09
    88     1  3.638E-09
    89     1  3.568E-09
    90     1  2.832E-09
    91     1  2.619E-09
    92     1  3.735E-09
    93     1  3.460E-09
    94     1  3.920E-09
    95     1  3.753E-09
    96     1  3.864E-09
    97     1  3.883E-09
    98     1  4.044E-09
    99     1  3.958E-09
   100     1  4.138E-09
   101     1  3.884E-09
   102     1  4.088E-09
   103     1  3.758E-09
   104     1  4.547E-09
   105     1  7.135E-09
   106     1  7.647E-09
   107     1  8.035E-09
   108     1  8.727E-09
   109     1  7.802E-09
   110     1  8.257E-09
   111     1  8.365E-09
   112     1  7.969E-09
   113     1  8.512E-09
   114     1  8.264E-09
   115     1  8.446E-09
   116     1  9.393E-09
   117     1  9.012E-09
   118     1  9.681E-09
   119     1  8.666E-09
   120     1  8.496E-09
   121     1  9.887E-09
   122     1  8.753E-09
   123     1  9.835E-09
   124     1  9.653E-09
   125     1  9.728E-09
   126     1  9.575E-09
   127     1  9.415E-09
   128     1  9.320E-09
   129     1  9.861E-09
   130     1  9.685E-09
   131     1  3.129E-08
   132     1  2.911E-06
  maximum residual=  2.911E-06 exceeds tolwfr=  1.000E-08
 
   1
   2
   3
   4
   5
   6
   7
   8
   9
  10
  11
  12
  13
  14
  15
  16
  17
  18
  19
  20
  21
  22
  23
  24
  25
  26
  27
  28
  29
  30
  31
  32
  33
  34
  35
  36
  37
  38
  39
  40
  41
  42
  43
  44
  45
  46
  47
  48
  49
  50
  51
  52
  53
  54
  55
 ioarr: writing density data
ioarr: file name is outdata/out_DEN
ioarr: data written to disk file outdata/out_DEN
 DATA TYPE INFORMATION: 
 REAL:      Data type name: REAL(DP) 
            Kind value:      8
            Precision:      15
            Smallest nonnegligible quantity relative to 1:  0.22204460E-15
            Smallest positive number:                       0.22250739-307
            Largest representable number:                   0.17976931+309
 INTEGER:   Data type name: INTEGER(default) 
            Kind value: 4
            Bit size:   32
            Largest representable number: 2147483647
 LOGICAL:   Data type name: LOGICAL 
            Kind value: 4
 CHARACTER: Data type name: CHARACTER             Kind value: 1
  ==== Using MPI-2 specifications ==== 
  MPI-IO support is ON
  xmpi_tag_ub ................    536870911
  xmpi_bsize_ch ..............            1
  xmpi_bsize_int .............            4
  xmpi_bsize_sp ..............            4
  xmpi_bsize_dp ..............            8
  xmpi_bsize_spc .............            8
  xmpi_bsize_dpc .............           16
  xmpio_bsize_frm ............            4
  xmpi_address_kind ..........            8
  xmpi_offset_kind ...........            8
  MPI_WTICK ..................   1.000000000000000E-006
 
 ++++++++++++++++++++++++++++++++++++++++++++++++++++++++++++++++++++++++++++++
 
 === Build Information === 
  Version       : 7.9.3
  Build target  : x86_64_linux_intel14.0
  Build date    : 20140915
 
 === Compiler Suite === 
  C compiler       : intel14.0
  C++ compiler     : intel14.0
  Fortran compiler : intel14.0
  CFLAGS           :  -g -O2 -vec-report0
  CXXFLAGS         :  -g -O2 -vec-report0
  FCFLAGS          : -O2 -g -extend-source -vec-report0 -noaltparam -nofpscomp -axAVX -xSSE4.2
  FC_LDFLAGS       :    -static-intel -static-libgcc
 
 === Optimizations === 
  Debug level        : basic
  Optimization level : standard
  Architecture       : intel_xeon
 
 === Multicore === 
  Parallel build : yes
  Parallel I/O   : yes
  openMP support : no
  GPU support    : no
 
 === Connectors / Fallbacks === 
  Connectors on : yes
  Fallbacks on  : yes
  DFT flavor    : none
  FFT flavor    : fftw3
  LINALG flavor : mkl+scalapack
  MATH flavor   : none
  TIMER flavor  : abinit
  TRIO flavor   : netcdf-fallback+etsf_io-fallback
 
 === Experimental features === 
  Bindings            : @enable_bindings@
  Exports             : no
  GW double-precision : no
 
 ++++++++++++++++++++++++++++++++++++++++++++++++++++++++++++++++++++++++++++++
 
 
--- !ERROR
message: |
    kpt =   0.00000000E+00  0.00000000E+00  0.00000000E+00
     with rank      171
    has no symmetric among the k-points used in the GS calculation
src_file: printbxsf.F90
src_line: 170
...
 
 
 leave_new : decision taken to exit ...
